                                                                                     
                             WELCOME TO ABACUS                                       
                                                                                     
               'Atomic-orbital Based Ab-initio Computation at UStc'                  
                                                                                     
                     Website: http://abacus.ustc.edu.cn/                             
                                                                                     
    Version: Parallel, in development
    Processor Number is 1
    Start Time is Tue Jul  5 16:50:52 2022
                                                                                     
 ------------------------------------------------------------------------------------

 READING GENERAL INFORMATION
                           global_out_dir = OUT.ABACUS/
                           global_in_card = INPUT
                               pseudo_dir = 
                              orbital_dir = 
                              pseudo_type = auto
                                    DRANK = 1
                                    DSIZE = 1
                                   DCOLOR = 1
                                    GRANK = 1
                                    GSIZE = 1




 >>>>>>>>>>>>>>>>>>>>>>>>>>>>>>>>>>>>>>>>>>>>>>>>>>>>>>>>>>>>>>>>>>>>>>
 |                                                                    |
 | Reading atom information in unitcell:                              |
 | From the input file and the structure file we know the number of   |
 | different elments in this unitcell, then we list the detail        |
 | information for each element, especially the zeta and polar atomic |
 | orbital number for each element. The total atom number is counted. |
 | We calculate the nearest atom distance for each atom and show the  |
 | Cartesian and Direct coordinates for each atom. We list the file   |
 | address for atomic orbitals. The volume and the lattice vectors    |
 | in real and reciprocal space is also shown.                        |
 |                                                                    |
 <<<<<<<<<<<<<<<<<<<<<<<<<<<<<<<<<<<<<<<<<<<<<<<<<<<<<<<<<<<<<<<<<<<<<<




 READING UNITCELL INFORMATION
                                    ntype = 1
                 atom label for species 1 = Si
                  lattice constant (Bohr) = 1.88977
              lattice constant (Angstrom) = 1.00002

 READING ATOM TYPE 1
                               atom label = Si
                      L=0, number of zeta = 2
                      L=1, number of zeta = 2
                      L=2, number of zeta = 1
             number of atom for this type = 2
                      start magnetization = FALSE
                      start magnetization = FALSE

                        TOTAL ATOM NUMBER = 2

 DIRECT COORDINATES
         atom                   x                   y                   z                 mag                  vx                  vy                  vz
     taud_Si1               0.125               0.125               0.125                   0                   0                   0                   0
     taud_Si2               0.875               0.875               0.875                   0                   0                   0                   0


 READING ORBITAL FILE NAMES FOR LCAO
 orbital file: orb_Si.dat

                          Volume (Bohr^3) = 268.14
                             Volume (A^3) = 39.7343

 Lattice vectors: (Cartesian coordinate: in unit of a_0)
                   +0            +2.70834            +2.70834
             +2.70834                  +0            +2.70834
             +2.70834            +2.70834                  +0
 Reciprocal vectors: (Cartesian coordinate: in unit of 2 pi/a_0)
            -0.184615           +0.184615           +0.184615
            +0.184615           -0.184615           +0.184615
            +0.184615           +0.184615           -0.184615




 >>>>>>>>>>>>>>>>>>>>>>>>>>>>>>>>>>>>>>>>>>>>>>>>>>>>>>>>>>>>>>>>>>>>>>
 |                                                                    |
 | Reading pseudopotentials files:                                    |
 | The pseudopotential file is in UPF format. The 'NC' indicates that |
 | the type of pseudopotential is 'norm conserving'. Functional of    |
 | exchange and correlation is decided by 4 given parameters in UPF   |
 | file.  We also read in the 'core correction' if there exists.      |
 | Also we can read the valence electrons number and the maximal      |
 | angular momentum used in this pseudopotential. We also read in the |
 | trail wave function, trail atomic density and local-pseudopotential|
 | on logrithmic grid. The non-local pseudopotential projector is also|
 | read in if there is any.                                           |
 |                                                                    |
 <<<<<<<<<<<<<<<<<<<<<<<<<<<<<<<<<<<<<<<<<<<<<<<<<<<<<<<<<<<<<<<<<<<<<<




                PAO radial cut off (Bohr) = 15

 Read in pseudopotential file is Si_ONCV_PBE_FR-1.1.upf
                     pseudopotential type = NC
          exchange-correlation functional = PBE
                 nonlocal core correction = 0
                        valence electrons = 4
                                     lmax = 1
                           number of zeta = 0
                     number of projectors = 4
                           L of projector = 0
                           L of projector = 0
                           L of projector = 1
                           L of projector = 1

 In Pseudopot_upf::read_pseudo_header : dft_functional from INPUT does not match that in pseudopot file
 Please make sure this is what you need
 XC functional updated to : hse
          exchange-correlation functional = HSE
     initial pseudo atomic orbital number = 0
                                   NLOCAL = 26




 >>>>>>>>>>>>>>>>>>>>>>>>>>>>>>>>>>>>>>>>>>>>>>>>>>>>>>>>>>>>>>>>>>>>>>
 |                                                                    |
 | Setup plane waves of charge/potential:                             |
 | Use the energy cutoff and the lattice vectors to generate the      |
 | dimensions of FFT grid. The number of FFT grid on each processor   |
 | is 'nrxx'. The number of plane wave basis in reciprocal space is   |
 | different for charege/potential and wave functions. We also set    |
 | the 'sticks' for the parallel of FFT. The number of plane waves    |
 | is 'npw' in each processor.                                        |
 <<<<<<<<<<<<<<<<<<<<<<<<<<<<<<<<<<<<<<<<<<<<<<<<<<<<<<<<<<<<<<<<<<<<<<





 SETUP THE PLANE WAVE BASIS
 energy cutoff for charge/potential (unit:Ry) = 400
          [fft grid for charge/potential] = 48, 48, 48
                      [fft grid division] = 2, 2, 2
      [big fft grid for charge/potential] = 24, 24, 24
                                     nbxx = 13824
                                     nrxx = 110592

 SETUP PLANE WAVES FOR CHARGE/POTENTIAL
                    number of plane waves = 36085
                         number of sticks = 1429

 PARALLEL PW FOR CHARGE/POTENTIAL
     PROC   COLUMNS(POT)             PW
        1           1429          36085
 --------------- sum -------------------
        1           1429          36085
                            number of |g| = 356
                                  max |g| = 36.1277
                                  min |g| = 0

 SETUP THE ELECTRONS NUMBER
            electron number of element Si = 4
      total electron number of element Si = 8
                           occupied bands = 4
                                   NLOCAL = 26
                                   NBANDS = 5
                                   NBANDS = 5
 DONE : SETUP UNITCELL Time : 0.0457752 (SEC)





 >>>>>>>>>>>>>>>>>>>>>>>>>>>>>>>>>>>>>>>>>>>>>>>>>>>>>>>>>>>>>>>>>>>>>>
 |                                                                    |
 | Setup K-points                                                     |
 | We setup the k-points according to input parameters.               |
 | The reduced k-points are set according to symmetry operations.     |
 | We treat the spin as another set of k-points.                      |
 |                                                                    |
 <<<<<<<<<<<<<<<<<<<<<<<<<<<<<<<<<<<<<<<<<<<<<<<<<<<<<<<<<<<<<<<<<<<<<<





 SETUP K-POINTS
                                    nspin = 1
                   Input type of k points = Monkhorst-Pack(Gamma)
is_mp : 1
                                   nkstot = 512
                               nkstot_ibz = 260
      IBZ             DirectX             DirectY             DirectZ              Weight    ibz2bz
        1                   0                   0                   0          0.00195312         0
        2               0.875                   0                   0          0.00390625         1
        3                0.75                   0                   0          0.00390625         2
        4               0.625                   0                   0          0.00390625         3
        5                 0.5                   0                   0          0.00195312         4
        6                   0               0.875                   0          0.00390625         8
        7               0.875               0.875                   0          0.00390625         9
        8                0.75               0.875                   0          0.00390625        10
        9               0.625               0.875                   0          0.00390625        11
       10                 0.5               0.875                   0          0.00390625        12
       11               0.375               0.875                   0          0.00390625        13
       12                0.25               0.875                   0          0.00390625        14
       13               0.125               0.875                   0          0.00390625        15
       14                   0                0.75                   0          0.00390625        16
       15               0.875                0.75                   0          0.00390625        17
       16                0.75                0.75                   0          0.00390625        18
       17               0.625                0.75                   0          0.00390625        19
       18                 0.5                0.75                   0          0.00390625        20
       19               0.375                0.75                   0          0.00390625        21
       20                0.25                0.75                   0          0.00390625        22
       21               0.125                0.75                   0          0.00390625        23
       22                   0               0.625                   0          0.00390625        24
       23               0.875               0.625                   0          0.00390625        25
       24                0.75               0.625                   0          0.00390625        26
       25               0.625               0.625                   0          0.00390625        27
       26                 0.5               0.625                   0          0.00390625        28
       27               0.375               0.625                   0          0.00390625        29
       28                0.25               0.625                   0          0.00390625        30
       29               0.125               0.625                   0          0.00390625        31
       30                   0                 0.5                   0          0.00195312        32
       31               0.875                 0.5                   0          0.00390625        33
       32                0.75                 0.5                   0          0.00390625        34
       33               0.625                 0.5                   0          0.00390625        35
       34                 0.5                 0.5                   0          0.00195312        36
       35                   0                   0               0.875          0.00390625        64
       36               0.875                   0               0.875          0.00390625        65
       37                0.75                   0               0.875          0.00390625        66
       38               0.625                   0               0.875          0.00390625        67
       39                 0.5                   0               0.875          0.00390625        68
       40               0.375                   0               0.875          0.00390625        69
       41                0.25                   0               0.875          0.00390625        70
       42               0.125                   0               0.875          0.00390625        71
       43                   0               0.875               0.875          0.00390625        72
       44               0.875               0.875               0.875          0.00390625        73
       45                0.75               0.875               0.875          0.00390625        74
       46               0.625               0.875               0.875          0.00390625        75
       47                 0.5               0.875               0.875          0.00390625        76
       48               0.375               0.875               0.875          0.00390625        77
       49                0.25               0.875               0.875          0.00390625        78
       50               0.125               0.875               0.875          0.00390625        79
       51                   0                0.75               0.875          0.00390625        80
       52               0.875                0.75               0.875          0.00390625        81
       53                0.75                0.75               0.875          0.00390625        82
       54               0.625                0.75               0.875          0.00390625        83
       55                 0.5                0.75               0.875          0.00390625        84
       56               0.375                0.75               0.875          0.00390625        85
       57                0.25                0.75               0.875          0.00390625        86
       58               0.125                0.75               0.875          0.00390625        87
       59                   0               0.625               0.875          0.00390625        88
       60               0.875               0.625               0.875          0.00390625        89
       61                0.75               0.625               0.875          0.00390625        90
       62               0.625               0.625               0.875          0.00390625        91
       63                 0.5               0.625               0.875          0.00390625        92
       64               0.375               0.625               0.875          0.00390625        93
       65                0.25               0.625               0.875          0.00390625        94
       66               0.125               0.625               0.875          0.00390625        95
       67                   0                 0.5               0.875          0.00390625        96
       68               0.875                 0.5               0.875          0.00390625        97
       69                0.75                 0.5               0.875          0.00390625        98
       70               0.625                 0.5               0.875          0.00390625        99
       71                 0.5                 0.5               0.875          0.00390625       100
       72               0.375                 0.5               0.875          0.00390625       101
       73                0.25                 0.5               0.875          0.00390625       102
       74               0.125                 0.5               0.875          0.00390625       103
       75                   0               0.375               0.875          0.00390625       104
       76               0.875               0.375               0.875          0.00390625       105
       77                0.75               0.375               0.875          0.00390625       106
       78               0.625               0.375               0.875          0.00390625       107
       79                 0.5               0.375               0.875          0.00390625       108
       80               0.375               0.375               0.875          0.00390625       109
       81                0.25               0.375               0.875          0.00390625       110
       82               0.125               0.375               0.875          0.00390625       111
       83                   0                0.25               0.875          0.00390625       112
       84               0.875                0.25               0.875          0.00390625       113
       85                0.75                0.25               0.875          0.00390625       114
       86               0.625                0.25               0.875          0.00390625       115
       87                 0.5                0.25               0.875          0.00390625       116
       88               0.375                0.25               0.875          0.00390625       117
       89                0.25                0.25               0.875          0.00390625       118
       90               0.125                0.25               0.875          0.00390625       119
       91                   0               0.125               0.875          0.00390625       120
       92               0.875               0.125               0.875          0.00390625       121
       93                0.75               0.125               0.875          0.00390625       122
       94               0.625               0.125               0.875          0.00390625       123
       95                 0.5               0.125               0.875          0.00390625       124
       96               0.375               0.125               0.875          0.00390625       125
       97                0.25               0.125               0.875          0.00390625       126
       98               0.125               0.125               0.875          0.00390625       127
       99                   0                   0                0.75          0.00390625       128
      100               0.875                   0                0.75          0.00390625       129
      101                0.75                   0                0.75          0.00390625       130
      102               0.625                   0                0.75          0.00390625       131
      103                 0.5                   0                0.75          0.00390625       132
      104               0.375                   0                0.75          0.00390625       133
      105                0.25                   0                0.75          0.00390625       134
      106               0.125                   0                0.75          0.00390625       135
      107                   0               0.875                0.75          0.00390625       136
      108               0.875               0.875                0.75          0.00390625       137
      109                0.75               0.875                0.75          0.00390625       138
      110               0.625               0.875                0.75          0.00390625       139
      111                 0.5               0.875                0.75          0.00390625       140
      112               0.375               0.875                0.75          0.00390625       141
      113                0.25               0.875                0.75          0.00390625       142
      114               0.125               0.875                0.75          0.00390625       143
      115                   0                0.75                0.75          0.00390625       144
      116               0.875                0.75                0.75          0.00390625       145
      117                0.75                0.75                0.75          0.00390625       146
      118               0.625                0.75                0.75          0.00390625       147
      119                 0.5                0.75                0.75          0.00390625       148
      120               0.375                0.75                0.75          0.00390625       149
      121                0.25                0.75                0.75          0.00390625       150
      122               0.125                0.75                0.75          0.00390625       151
      123                   0               0.625                0.75          0.00390625       152
      124               0.875               0.625                0.75          0.00390625       153
      125                0.75               0.625                0.75          0.00390625       154
      126               0.625               0.625                0.75          0.00390625       155
      127                 0.5               0.625                0.75          0.00390625       156
      128               0.375               0.625                0.75          0.00390625       157
      129                0.25               0.625                0.75          0.00390625       158
      130               0.125               0.625                0.75          0.00390625       159
      131                   0                 0.5                0.75          0.00390625       160
      132               0.875                 0.5                0.75          0.00390625       161
      133                0.75                 0.5                0.75          0.00390625       162
      134               0.625                 0.5                0.75          0.00390625       163
      135                 0.5                 0.5                0.75          0.00390625       164
      136               0.375                 0.5                0.75          0.00390625       165
      137                0.25                 0.5                0.75          0.00390625       166
      138               0.125                 0.5                0.75          0.00390625       167
      139                   0               0.375                0.75          0.00390625       168
      140               0.875               0.375                0.75          0.00390625       169
      141                0.75               0.375                0.75          0.00390625       170
      142               0.625               0.375                0.75          0.00390625       171
      143                 0.5               0.375                0.75          0.00390625       172
      144               0.375               0.375                0.75          0.00390625       173
      145                0.25               0.375                0.75          0.00390625       174
      146               0.125               0.375                0.75          0.00390625       175
      147                   0                0.25                0.75          0.00390625       176
      148               0.875                0.25                0.75          0.00390625       177
      149                0.75                0.25                0.75          0.00390625       178
      150               0.625                0.25                0.75          0.00390625       179
      151                 0.5                0.25                0.75          0.00390625       180
      152               0.375                0.25                0.75          0.00390625       181
      153                0.25                0.25                0.75          0.00390625       182
      154               0.125                0.25                0.75          0.00390625       183
      155                   0               0.125                0.75          0.00390625       184
      156               0.875               0.125                0.75          0.00390625       185
      157                0.75               0.125                0.75          0.00390625       186
      158               0.625               0.125                0.75          0.00390625       187
      159                 0.5               0.125                0.75          0.00390625       188
      160               0.375               0.125                0.75          0.00390625       189
      161                0.25               0.125                0.75          0.00390625       190
      162               0.125               0.125                0.75          0.00390625       191
      163                   0                   0               0.625          0.00390625       192
      164               0.875                   0               0.625          0.00390625       193
      165                0.75                   0               0.625          0.00390625       194
      166               0.625                   0               0.625          0.00390625       195
      167                 0.5                   0               0.625          0.00390625       196
      168               0.375                   0               0.625          0.00390625       197
      169                0.25                   0               0.625          0.00390625       198
      170               0.125                   0               0.625          0.00390625       199
      171                   0               0.875               0.625          0.00390625       200
      172               0.875               0.875               0.625          0.00390625       201
      173                0.75               0.875               0.625          0.00390625       202
      174               0.625               0.875               0.625          0.00390625       203
      175                 0.5               0.875               0.625          0.00390625       204
      176               0.375               0.875               0.625          0.00390625       205
      177                0.25               0.875               0.625          0.00390625       206
      178               0.125               0.875               0.625          0.00390625       207
      179                   0                0.75               0.625          0.00390625       208
      180               0.875                0.75               0.625          0.00390625       209
      181                0.75                0.75               0.625          0.00390625       210
      182               0.625                0.75               0.625          0.00390625       211
      183                 0.5                0.75               0.625          0.00390625       212
      184               0.375                0.75               0.625          0.00390625       213
      185                0.25                0.75               0.625          0.00390625       214
      186               0.125                0.75               0.625          0.00390625       215
      187                   0               0.625               0.625          0.00390625       216
      188               0.875               0.625               0.625          0.00390625       217
      189                0.75               0.625               0.625          0.00390625       218
      190               0.625               0.625               0.625          0.00390625       219
      191                 0.5               0.625               0.625          0.00390625       220
      192               0.375               0.625               0.625          0.00390625       221
      193                0.25               0.625               0.625          0.00390625       222
      194               0.125               0.625               0.625          0.00390625       223
      195                   0                 0.5               0.625          0.00390625       224
      196               0.875                 0.5               0.625          0.00390625       225
      197                0.75                 0.5               0.625          0.00390625       226
      198               0.625                 0.5               0.625          0.00390625       227
      199                 0.5                 0.5               0.625          0.00390625       228
      200               0.375                 0.5               0.625          0.00390625       229
      201                0.25                 0.5               0.625          0.00390625       230
      202               0.125                 0.5               0.625          0.00390625       231
      203                   0               0.375               0.625          0.00390625       232
      204               0.875               0.375               0.625          0.00390625       233
      205                0.75               0.375               0.625          0.00390625       234
      206               0.625               0.375               0.625          0.00390625       235
      207                 0.5               0.375               0.625          0.00390625       236
      208               0.375               0.375               0.625          0.00390625       237
      209                0.25               0.375               0.625          0.00390625       238
      210               0.125               0.375               0.625          0.00390625       239
      211                   0                0.25               0.625          0.00390625       240
      212               0.875                0.25               0.625          0.00390625       241
      213                0.75                0.25               0.625          0.00390625       242
      214               0.625                0.25               0.625          0.00390625       243
      215                 0.5                0.25               0.625          0.00390625       244
      216               0.375                0.25               0.625          0.00390625       245
      217                0.25                0.25               0.625          0.00390625       246
      218               0.125                0.25               0.625          0.00390625       247
      219                   0               0.125               0.625          0.00390625       248
      220               0.875               0.125               0.625          0.00390625       249
      221                0.75               0.125               0.625          0.00390625       250
      222               0.625               0.125               0.625          0.00390625       251
      223                 0.5               0.125               0.625          0.00390625       252
      224               0.375               0.125               0.625          0.00390625       253
      225                0.25               0.125               0.625          0.00390625       254
      226               0.125               0.125               0.625          0.00390625       255
      227                   0                   0                 0.5          0.00195312       256
      228               0.875                   0                 0.5          0.00390625       257
      229                0.75                   0                 0.5          0.00390625       258
      230               0.625                   0                 0.5          0.00390625       259
      231                 0.5                   0                 0.5          0.00195312       260
      232                   0               0.875                 0.5          0.00390625       264
      233               0.875               0.875                 0.5          0.00390625       265
      234                0.75               0.875                 0.5          0.00390625       266
      235               0.625               0.875                 0.5          0.00390625       267
      236                 0.5               0.875                 0.5          0.00390625       268
      237               0.375               0.875                 0.5          0.00390625       269
      238                0.25               0.875                 0.5          0.00390625       270
      239               0.125               0.875                 0.5          0.00390625       271
      240                   0                0.75                 0.5          0.00390625       272
      241               0.875                0.75                 0.5          0.00390625       273
      242                0.75                0.75                 0.5          0.00390625       274
      243               0.625                0.75                 0.5          0.00390625       275
      244                 0.5                0.75                 0.5          0.00390625       276
      245               0.375                0.75                 0.5          0.00390625       277
      246                0.25                0.75                 0.5          0.00390625       278
      247               0.125                0.75                 0.5          0.00390625       279
      248                   0               0.625                 0.5          0.00390625       280
      249               0.875               0.625                 0.5          0.00390625       281
      250                0.75               0.625                 0.5          0.00390625       282
      251               0.625               0.625                 0.5          0.00390625       283
      252                 0.5               0.625                 0.5          0.00390625       284
      253               0.375               0.625                 0.5          0.00390625       285
      254                0.25               0.625                 0.5          0.00390625       286
      255               0.125               0.625                 0.5          0.00390625       287
      256                   0                 0.5                 0.5          0.00195312       288
      257               0.875                 0.5                 0.5          0.00390625       289
      258                0.75                 0.5                 0.5          0.00390625       290
      259               0.625                 0.5                 0.5          0.00390625       291
      260                 0.5                 0.5                 0.5          0.00195312       292
                               nkstot now = 260

  KPOINTS            DIRECT_X            DIRECT_Y            DIRECT_Z              WEIGHT
        1                   0                   0                   0          0.00195312
        2               0.875                   0                   0          0.00390625
        3                0.75                   0                   0          0.00390625
        4               0.625                   0                   0          0.00390625
        5                 0.5                   0                   0          0.00195312
        6                   0               0.875                   0          0.00390625
        7               0.875               0.875                   0          0.00390625
        8                0.75               0.875                   0          0.00390625
        9               0.625               0.875                   0          0.00390625
       10                 0.5               0.875                   0          0.00390625
       11               0.375               0.875                   0          0.00390625
       12                0.25               0.875                   0          0.00390625
       13               0.125               0.875                   0          0.00390625
       14                   0                0.75                   0          0.00390625
       15               0.875                0.75                   0          0.00390625
       16                0.75                0.75                   0          0.00390625
       17               0.625                0.75                   0          0.00390625
       18                 0.5                0.75                   0          0.00390625
       19               0.375                0.75                   0          0.00390625
       20                0.25                0.75                   0          0.00390625
       21               0.125                0.75                   0          0.00390625
       22                   0               0.625                   0          0.00390625
       23               0.875               0.625                   0          0.00390625
       24                0.75               0.625                   0          0.00390625
       25               0.625               0.625                   0          0.00390625
       26                 0.5               0.625                   0          0.00390625
       27               0.375               0.625                   0          0.00390625
       28                0.25               0.625                   0          0.00390625
       29               0.125               0.625                   0          0.00390625
       30                   0                 0.5                   0          0.00195312
       31               0.875                 0.5                   0          0.00390625
       32                0.75                 0.5                   0          0.00390625
       33               0.625                 0.5                   0          0.00390625
       34                 0.5                 0.5                   0          0.00195312
       35                   0                   0               0.875          0.00390625
       36               0.875                   0               0.875          0.00390625
       37                0.75                   0               0.875          0.00390625
       38               0.625                   0               0.875          0.00390625
       39                 0.5                   0               0.875          0.00390625
       40               0.375                   0               0.875          0.00390625
       41                0.25                   0               0.875          0.00390625
       42               0.125                   0               0.875          0.00390625
       43                   0               0.875               0.875          0.00390625
       44               0.875               0.875               0.875          0.00390625
       45                0.75               0.875               0.875          0.00390625
       46               0.625               0.875               0.875          0.00390625
       47                 0.5               0.875               0.875          0.00390625
       48               0.375               0.875               0.875          0.00390625
       49                0.25               0.875               0.875          0.00390625
       50               0.125               0.875               0.875          0.00390625
       51                   0                0.75               0.875          0.00390625
       52               0.875                0.75               0.875          0.00390625
       53                0.75                0.75               0.875          0.00390625
       54               0.625                0.75               0.875          0.00390625
       55                 0.5                0.75               0.875          0.00390625
       56               0.375                0.75               0.875          0.00390625
       57                0.25                0.75               0.875          0.00390625
       58               0.125                0.75               0.875          0.00390625
       59                   0               0.625               0.875          0.00390625
       60               0.875               0.625               0.875          0.00390625
       61                0.75               0.625               0.875          0.00390625
       62               0.625               0.625               0.875          0.00390625
       63                 0.5               0.625               0.875          0.00390625
       64               0.375               0.625               0.875          0.00390625
       65                0.25               0.625               0.875          0.00390625
       66               0.125               0.625               0.875          0.00390625
       67                   0                 0.5               0.875          0.00390625
       68               0.875                 0.5               0.875          0.00390625
       69                0.75                 0.5               0.875          0.00390625
       70               0.625                 0.5               0.875          0.00390625
       71                 0.5                 0.5               0.875          0.00390625
       72               0.375                 0.5               0.875          0.00390625
       73                0.25                 0.5               0.875          0.00390625
       74               0.125                 0.5               0.875          0.00390625
       75                   0               0.375               0.875          0.00390625
       76               0.875               0.375               0.875          0.00390625
       77                0.75               0.375               0.875          0.00390625
       78               0.625               0.375               0.875          0.00390625
       79                 0.5               0.375               0.875          0.00390625
       80               0.375               0.375               0.875          0.00390625
       81                0.25               0.375               0.875          0.00390625
       82               0.125               0.375               0.875          0.00390625
       83                   0                0.25               0.875          0.00390625
       84               0.875                0.25               0.875          0.00390625
       85                0.75                0.25               0.875          0.00390625
       86               0.625                0.25               0.875          0.00390625
       87                 0.5                0.25               0.875          0.00390625
       88               0.375                0.25               0.875          0.00390625
       89                0.25                0.25               0.875          0.00390625
       90               0.125                0.25               0.875          0.00390625
       91                   0               0.125               0.875          0.00390625
       92               0.875               0.125               0.875          0.00390625
       93                0.75               0.125               0.875          0.00390625
       94               0.625               0.125               0.875          0.00390625
       95                 0.5               0.125               0.875          0.00390625
       96               0.375               0.125               0.875          0.00390625
       97                0.25               0.125               0.875          0.00390625
       98               0.125               0.125               0.875          0.00390625
       99                   0                   0                0.75          0.00390625
      100               0.875                   0                0.75          0.00390625
      101                0.75                   0                0.75          0.00390625
      102               0.625                   0                0.75          0.00390625
      103                 0.5                   0                0.75          0.00390625
      104               0.375                   0                0.75          0.00390625
      105                0.25                   0                0.75          0.00390625
      106               0.125                   0                0.75          0.00390625
      107                   0               0.875                0.75          0.00390625
      108               0.875               0.875                0.75          0.00390625
      109                0.75               0.875                0.75          0.00390625
      110               0.625               0.875                0.75          0.00390625
      111                 0.5               0.875                0.75          0.00390625
      112               0.375               0.875                0.75          0.00390625
      113                0.25               0.875                0.75          0.00390625
      114               0.125               0.875                0.75          0.00390625
      115                   0                0.75                0.75          0.00390625
      116               0.875                0.75                0.75          0.00390625
      117                0.75                0.75                0.75          0.00390625
      118               0.625                0.75                0.75          0.00390625
      119                 0.5                0.75                0.75          0.00390625
      120               0.375                0.75                0.75          0.00390625
      121                0.25                0.75                0.75          0.00390625
      122               0.125                0.75                0.75          0.00390625
      123                   0               0.625                0.75          0.00390625
      124               0.875               0.625                0.75          0.00390625
      125                0.75               0.625                0.75          0.00390625
      126               0.625               0.625                0.75          0.00390625
      127                 0.5               0.625                0.75          0.00390625
      128               0.375               0.625                0.75          0.00390625
      129                0.25               0.625                0.75          0.00390625
      130               0.125               0.625                0.75          0.00390625
      131                   0                 0.5                0.75          0.00390625
      132               0.875                 0.5                0.75          0.00390625
      133                0.75                 0.5                0.75          0.00390625
      134               0.625                 0.5                0.75          0.00390625
      135                 0.5                 0.5                0.75          0.00390625
      136               0.375                 0.5                0.75          0.00390625
      137                0.25                 0.5                0.75          0.00390625
      138               0.125                 0.5                0.75          0.00390625
      139                   0               0.375                0.75          0.00390625
      140               0.875               0.375                0.75          0.00390625
      141                0.75               0.375                0.75          0.00390625
      142               0.625               0.375                0.75          0.00390625
      143                 0.5               0.375                0.75          0.00390625
      144               0.375               0.375                0.75          0.00390625
      145                0.25               0.375                0.75          0.00390625
      146               0.125               0.375                0.75          0.00390625
      147                   0                0.25                0.75          0.00390625
      148               0.875                0.25                0.75          0.00390625
      149                0.75                0.25                0.75          0.00390625
      150               0.625                0.25                0.75          0.00390625
      151                 0.5                0.25                0.75          0.00390625
      152               0.375                0.25                0.75          0.00390625
      153                0.25                0.25                0.75          0.00390625
      154               0.125                0.25                0.75          0.00390625
      155                   0               0.125                0.75          0.00390625
      156               0.875               0.125                0.75          0.00390625
      157                0.75               0.125                0.75          0.00390625
      158               0.625               0.125                0.75          0.00390625
      159                 0.5               0.125                0.75          0.00390625
      160               0.375               0.125                0.75          0.00390625
      161                0.25               0.125                0.75          0.00390625
      162               0.125               0.125                0.75          0.00390625
      163                   0                   0               0.625          0.00390625
      164               0.875                   0               0.625          0.00390625
      165                0.75                   0               0.625          0.00390625
      166               0.625                   0               0.625          0.00390625
      167                 0.5                   0               0.625          0.00390625
      168               0.375                   0               0.625          0.00390625
      169                0.25                   0               0.625          0.00390625
      170               0.125                   0               0.625          0.00390625
      171                   0               0.875               0.625          0.00390625
      172               0.875               0.875               0.625          0.00390625
      173                0.75               0.875               0.625          0.00390625
      174               0.625               0.875               0.625          0.00390625
      175                 0.5               0.875               0.625          0.00390625
      176               0.375               0.875               0.625          0.00390625
      177                0.25               0.875               0.625          0.00390625
      178               0.125               0.875               0.625          0.00390625
      179                   0                0.75               0.625          0.00390625
      180               0.875                0.75               0.625          0.00390625
      181                0.75                0.75               0.625          0.00390625
      182               0.625                0.75               0.625          0.00390625
      183                 0.5                0.75               0.625          0.00390625
      184               0.375                0.75               0.625          0.00390625
      185                0.25                0.75               0.625          0.00390625
      186               0.125                0.75               0.625          0.00390625
      187                   0               0.625               0.625          0.00390625
      188               0.875               0.625               0.625          0.00390625
      189                0.75               0.625               0.625          0.00390625
      190               0.625               0.625               0.625          0.00390625
      191                 0.5               0.625               0.625          0.00390625
      192               0.375               0.625               0.625          0.00390625
      193                0.25               0.625               0.625          0.00390625
      194               0.125               0.625               0.625          0.00390625
      195                   0                 0.5               0.625          0.00390625
      196               0.875                 0.5               0.625          0.00390625
      197                0.75                 0.5               0.625          0.00390625
      198               0.625                 0.5               0.625          0.00390625
      199                 0.5                 0.5               0.625          0.00390625
      200               0.375                 0.5               0.625          0.00390625
      201                0.25                 0.5               0.625          0.00390625
      202               0.125                 0.5               0.625          0.00390625
      203                   0               0.375               0.625          0.00390625
      204               0.875               0.375               0.625          0.00390625
      205                0.75               0.375               0.625          0.00390625
      206               0.625               0.375               0.625          0.00390625
      207                 0.5               0.375               0.625          0.00390625
      208               0.375               0.375               0.625          0.00390625
      209                0.25               0.375               0.625          0.00390625
      210               0.125               0.375               0.625          0.00390625
      211                   0                0.25               0.625          0.00390625
      212               0.875                0.25               0.625          0.00390625
      213                0.75                0.25               0.625          0.00390625
      214               0.625                0.25               0.625          0.00390625
      215                 0.5                0.25               0.625          0.00390625
      216               0.375                0.25               0.625          0.00390625
      217                0.25                0.25               0.625          0.00390625
      218               0.125                0.25               0.625          0.00390625
      219                   0               0.125               0.625          0.00390625
      220               0.875               0.125               0.625          0.00390625
      221                0.75               0.125               0.625          0.00390625
      222               0.625               0.125               0.625          0.00390625
      223                 0.5               0.125               0.625          0.00390625
      224               0.375               0.125               0.625          0.00390625
      225                0.25               0.125               0.625          0.00390625
      226               0.125               0.125               0.625          0.00390625
      227                   0                   0                 0.5          0.00195312
      228               0.875                   0                 0.5          0.00390625
      229                0.75                   0                 0.5          0.00390625
      230               0.625                   0                 0.5          0.00390625
      231                 0.5                   0                 0.5          0.00195312
      232                   0               0.875                 0.5          0.00390625
      233               0.875               0.875                 0.5          0.00390625
      234                0.75               0.875                 0.5          0.00390625
      235               0.625               0.875                 0.5          0.00390625
      236                 0.5               0.875                 0.5          0.00390625
      237               0.375               0.875                 0.5          0.00390625
      238                0.25               0.875                 0.5          0.00390625
      239               0.125               0.875                 0.5          0.00390625
      240                   0                0.75                 0.5          0.00390625
      241               0.875                0.75                 0.5          0.00390625
      242                0.75                0.75                 0.5          0.00390625
      243               0.625                0.75                 0.5          0.00390625
      244                 0.5                0.75                 0.5          0.00390625
      245               0.375                0.75                 0.5          0.00390625
      246                0.25                0.75                 0.5          0.00390625
      247               0.125                0.75                 0.5          0.00390625
      248                   0               0.625                 0.5          0.00390625
      249               0.875               0.625                 0.5          0.00390625
      250                0.75               0.625                 0.5          0.00390625
      251               0.625               0.625                 0.5          0.00390625
      252                 0.5               0.625                 0.5          0.00390625
      253               0.375               0.625                 0.5          0.00390625
      254                0.25               0.625                 0.5          0.00390625
      255               0.125               0.625                 0.5          0.00390625
      256                   0                 0.5                 0.5          0.00195312
      257               0.875                 0.5                 0.5          0.00390625
      258                0.75                 0.5                 0.5          0.00390625
      259               0.625                 0.5                 0.5          0.00390625
      260                 0.5                 0.5                 0.5          0.00195312

           k-point number in this process = 260
       minimum distributed K point number = 260

  KPOINTS         CARTESIAN_X         CARTESIAN_Y         CARTESIAN_Z              WEIGHT
        1                   0                   0                   0          0.00390625
        2           -0.161538            0.161538            0.161538           0.0078125
        3           -0.138461            0.138461            0.138461           0.0078125
        4           -0.115384            0.115384            0.115384           0.0078125
        5          -0.0923076           0.0923076           0.0923076          0.00390625
        6            0.161538           -0.161538            0.161538           0.0078125
        7                   0                   0            0.323076           0.0078125
        8           0.0230769          -0.0230769                 0.3           0.0078125
        9           0.0461538          -0.0461538            0.276923           0.0078125
       10           0.0692307          -0.0692307            0.253846           0.0078125
       11           0.0923076          -0.0923076            0.230769           0.0078125
       12            0.115384           -0.115384            0.207692           0.0078125
       13            0.138461           -0.138461            0.184615           0.0078125
       14            0.138461           -0.138461            0.138461           0.0078125
       15          -0.0230769           0.0230769                 0.3           0.0078125
       16                   0                   0            0.276923           0.0078125
       17           0.0230769          -0.0230769            0.253846           0.0078125
       18           0.0461538          -0.0461538            0.230769           0.0078125
       19           0.0692307          -0.0692307            0.207692           0.0078125
       20           0.0923076          -0.0923076            0.184615           0.0078125
       21            0.115384           -0.115384            0.161538           0.0078125
       22            0.115384           -0.115384            0.115384           0.0078125
       23          -0.0461538           0.0461538            0.276923           0.0078125
       24          -0.0230769           0.0230769            0.253846           0.0078125
       25                   0                   0            0.230769           0.0078125
       26           0.0230769          -0.0230769            0.207692           0.0078125
       27           0.0461538          -0.0461538            0.184615           0.0078125
       28           0.0692307          -0.0692307            0.161538           0.0078125
       29           0.0923076          -0.0923076            0.138461           0.0078125
       30           0.0923076          -0.0923076           0.0923076          0.00390625
       31          -0.0692307           0.0692307            0.253846           0.0078125
       32          -0.0461538           0.0461538            0.230769           0.0078125
       33          -0.0230769           0.0230769            0.207692           0.0078125
       34                   0                   0            0.184615          0.00390625
       35            0.161538            0.161538           -0.161538           0.0078125
       36                   0            0.323076                   0           0.0078125
       37           0.0230769                 0.3          -0.0230769           0.0078125
       38           0.0461538            0.276923          -0.0461538           0.0078125
       39           0.0692307            0.253846          -0.0692307           0.0078125
       40           0.0923076            0.230769          -0.0923076           0.0078125
       41            0.115384            0.207692           -0.115384           0.0078125
       42            0.138461            0.184615           -0.138461           0.0078125
       43            0.323076                   0                   0           0.0078125
       44            0.161538            0.161538            0.161538           0.0078125
       45            0.184615            0.138461            0.138461           0.0078125
       46            0.207692            0.115384            0.115384           0.0078125
       47            0.230769           0.0923076           0.0923076           0.0078125
       48            0.253846           0.0692307           0.0692307           0.0078125
       49            0.276923           0.0461538           0.0461538           0.0078125
       50                 0.3           0.0230769           0.0230769           0.0078125
       51                 0.3           0.0230769          -0.0230769           0.0078125
       52            0.138461            0.184615            0.138461           0.0078125
       53            0.161538            0.161538            0.115384           0.0078125
       54            0.184615            0.138461           0.0923076           0.0078125
       55            0.207692            0.115384           0.0692307           0.0078125
       56            0.230769           0.0923076           0.0461538           0.0078125
       57            0.253846           0.0692307           0.0230769           0.0078125
       58            0.276923           0.0461538                   0           0.0078125
       59            0.276923           0.0461538          -0.0461538           0.0078125
       60            0.115384            0.207692            0.115384           0.0078125
       61            0.138461            0.184615           0.0923076           0.0078125
       62            0.161538            0.161538           0.0692307           0.0078125
       63            0.184615            0.138461           0.0461538           0.0078125
       64            0.207692            0.115384           0.0230769           0.0078125
       65            0.230769           0.0923076                   0           0.0078125
       66            0.253846           0.0692307          -0.0230769           0.0078125
       67            0.253846           0.0692307          -0.0692307           0.0078125
       68           0.0923076            0.230769           0.0923076           0.0078125
       69            0.115384            0.207692           0.0692307           0.0078125
       70            0.138461            0.184615           0.0461538           0.0078125
       71            0.161538            0.161538           0.0230769           0.0078125
       72            0.184615            0.138461                   0           0.0078125
       73            0.207692            0.115384          -0.0230769           0.0078125
       74            0.230769           0.0923076          -0.0461538           0.0078125
       75            0.230769           0.0923076          -0.0923076           0.0078125
       76           0.0692307            0.253846           0.0692307           0.0078125
       77           0.0923076            0.230769           0.0461538           0.0078125
       78            0.115384            0.207692           0.0230769           0.0078125
       79            0.138461            0.184615                   0           0.0078125
       80            0.161538            0.161538          -0.0230769           0.0078125
       81            0.184615            0.138461          -0.0461538           0.0078125
       82            0.207692            0.115384          -0.0692307           0.0078125
       83            0.207692            0.115384           -0.115384           0.0078125
       84           0.0461538            0.276923           0.0461538           0.0078125
       85           0.0692307            0.253846           0.0230769           0.0078125
       86           0.0923076            0.230769                   0           0.0078125
       87            0.115384            0.207692          -0.0230769           0.0078125
       88            0.138461            0.184615          -0.0461538           0.0078125
       89            0.161538            0.161538          -0.0692307           0.0078125
       90            0.184615            0.138461          -0.0923076           0.0078125
       91            0.184615            0.138461           -0.138461           0.0078125
       92           0.0230769                 0.3           0.0230769           0.0078125
       93           0.0461538            0.276923                   0           0.0078125
       94           0.0692307            0.253846          -0.0230769           0.0078125
       95           0.0923076            0.230769          -0.0461538           0.0078125
       96            0.115384            0.207692          -0.0692307           0.0078125
       97            0.138461            0.184615          -0.0923076           0.0078125
       98            0.161538            0.161538           -0.115384           0.0078125
       99            0.138461            0.138461           -0.138461           0.0078125
      100          -0.0230769                 0.3           0.0230769           0.0078125
      101                   0            0.276923                   0           0.0078125
      102           0.0230769            0.253846          -0.0230769           0.0078125
      103           0.0461538            0.230769          -0.0461538           0.0078125
      104           0.0692307            0.207692          -0.0692307           0.0078125
      105           0.0923076            0.184615          -0.0923076           0.0078125
      106            0.115384            0.161538           -0.115384           0.0078125
      107                 0.3          -0.0230769           0.0230769           0.0078125
      108            0.138461            0.138461            0.184615           0.0078125
      109            0.161538            0.115384            0.161538           0.0078125
      110            0.184615           0.0923076            0.138461           0.0078125
      111            0.207692           0.0692307            0.115384           0.0078125
      112            0.230769           0.0461538           0.0923076           0.0078125
      113            0.253846           0.0230769           0.0692307           0.0078125
      114            0.276923                   0           0.0461538           0.0078125
      115            0.276923                   0                   0           0.0078125
      116            0.115384            0.161538            0.161538           0.0078125
      117            0.138461            0.138461            0.138461           0.0078125
      118            0.161538            0.115384            0.115384           0.0078125
      119            0.184615           0.0923076           0.0923076           0.0078125
      120            0.207692           0.0692307           0.0692307           0.0078125
      121            0.230769           0.0461538           0.0461538           0.0078125
      122            0.253846           0.0230769           0.0230769           0.0078125
      123            0.253846           0.0230769          -0.0230769           0.0078125
      124           0.0923076            0.184615            0.138461           0.0078125
      125            0.115384            0.161538            0.115384           0.0078125
      126            0.138461            0.138461           0.0923076           0.0078125
      127            0.161538            0.115384           0.0692307           0.0078125
      128            0.184615           0.0923076           0.0461538           0.0078125
      129            0.207692           0.0692307           0.0230769           0.0078125
      130            0.230769           0.0461538                   0           0.0078125
      131            0.230769           0.0461538          -0.0461538           0.0078125
      132           0.0692307            0.207692            0.115384           0.0078125
      133           0.0923076            0.184615           0.0923076           0.0078125
      134            0.115384            0.161538           0.0692307           0.0078125
      135            0.138461            0.138461           0.0461538           0.0078125
      136            0.161538            0.115384           0.0230769           0.0078125
      137            0.184615           0.0923076                   0           0.0078125
      138            0.207692           0.0692307          -0.0230769           0.0078125
      139            0.207692           0.0692307          -0.0692307           0.0078125
      140           0.0461538            0.230769           0.0923076           0.0078125
      141           0.0692307            0.207692           0.0692307           0.0078125
      142           0.0923076            0.184615           0.0461538           0.0078125
      143            0.115384            0.161538           0.0230769           0.0078125
      144            0.138461            0.138461                   0           0.0078125
      145            0.161538            0.115384          -0.0230769           0.0078125
      146            0.184615           0.0923076          -0.0461538           0.0078125
      147            0.184615           0.0923076          -0.0923076           0.0078125
      148           0.0230769            0.253846           0.0692307           0.0078125
      149           0.0461538            0.230769           0.0461538           0.0078125
      150           0.0692307            0.207692           0.0230769           0.0078125
      151           0.0923076            0.184615                   0           0.0078125
      152            0.115384            0.161538          -0.0230769           0.0078125
      153            0.138461            0.138461          -0.0461538           0.0078125
      154            0.161538            0.115384          -0.0692307           0.0078125
      155            0.161538            0.115384           -0.115384           0.0078125
      156                   0            0.276923           0.0461538           0.0078125
      157           0.0230769            0.253846           0.0230769           0.0078125
      158           0.0461538            0.230769                   0           0.0078125
      159           0.0692307            0.207692          -0.0230769           0.0078125
      160           0.0923076            0.184615          -0.0461538           0.0078125
      161            0.115384            0.161538          -0.0692307           0.0078125
      162            0.138461            0.138461          -0.0923076           0.0078125
      163            0.115384            0.115384           -0.115384           0.0078125
      164          -0.0461538            0.276923           0.0461538           0.0078125
      165          -0.0230769            0.253846           0.0230769           0.0078125
      166                   0            0.230769                   0           0.0078125
      167           0.0230769            0.207692          -0.0230769           0.0078125
      168           0.0461538            0.184615          -0.0461538           0.0078125
      169           0.0692307            0.161538          -0.0692307           0.0078125
      170           0.0923076            0.138461          -0.0923076           0.0078125
      171            0.276923          -0.0461538           0.0461538           0.0078125
      172            0.115384            0.115384            0.207692           0.0078125
      173            0.138461           0.0923076            0.184615           0.0078125
      174            0.161538           0.0692307            0.161538           0.0078125
      175            0.184615           0.0461538            0.138461           0.0078125
      176            0.207692           0.0230769            0.115384           0.0078125
      177            0.230769                   0           0.0923076           0.0078125
      178            0.253846          -0.0230769           0.0692307           0.0078125
      179            0.253846          -0.0230769           0.0230769           0.0078125
      180           0.0923076            0.138461            0.184615           0.0078125
      181            0.115384            0.115384            0.161538           0.0078125
      182            0.138461           0.0923076            0.138461           0.0078125
      183            0.161538           0.0692307            0.115384           0.0078125
      184            0.184615           0.0461538           0.0923076           0.0078125
      185            0.207692           0.0230769           0.0692307           0.0078125
      186            0.230769                   0           0.0461538           0.0078125
      187            0.230769                   0                   0           0.0078125
      188           0.0692307            0.161538            0.161538           0.0078125
      189           0.0923076            0.138461            0.138461           0.0078125
      190            0.115384            0.115384            0.115384           0.0078125
      191            0.138461           0.0923076           0.0923076           0.0078125
      192            0.161538           0.0692307           0.0692307           0.0078125
      193            0.184615           0.0461538           0.0461538           0.0078125
      194            0.207692           0.0230769           0.0230769           0.0078125
      195            0.207692           0.0230769          -0.0230769           0.0078125
      196           0.0461538            0.184615            0.138461           0.0078125
      197           0.0692307            0.161538            0.115384           0.0078125
      198           0.0923076            0.138461           0.0923076           0.0078125
      199            0.115384            0.115384           0.0692307           0.0078125
      200            0.138461           0.0923076           0.0461538           0.0078125
      201            0.161538           0.0692307           0.0230769           0.0078125
      202            0.184615           0.0461538                   0           0.0078125
      203            0.184615           0.0461538          -0.0461538           0.0078125
      204           0.0230769            0.207692            0.115384           0.0078125
      205           0.0461538            0.184615           0.0923076           0.0078125
      206           0.0692307            0.161538           0.0692307           0.0078125
      207           0.0923076            0.138461           0.0461538           0.0078125
      208            0.115384            0.115384           0.0230769           0.0078125
      209            0.138461           0.0923076                   0           0.0078125
      210            0.161538           0.0692307          -0.0230769           0.0078125
      211            0.161538           0.0692307          -0.0692307           0.0078125
      212                   0            0.230769           0.0923076           0.0078125
      213           0.0230769            0.207692           0.0692307           0.0078125
      214           0.0461538            0.184615           0.0461538           0.0078125
      215           0.0692307            0.161538           0.0230769           0.0078125
      216           0.0923076            0.138461                   0           0.0078125
      217            0.115384            0.115384          -0.0230769           0.0078125
      218            0.138461           0.0923076          -0.0461538           0.0078125
      219            0.138461           0.0923076          -0.0923076           0.0078125
      220          -0.0230769            0.253846           0.0692307           0.0078125
      221                   0            0.230769           0.0461538           0.0078125
      222           0.0230769            0.207692           0.0230769           0.0078125
      223           0.0461538            0.184615                   0           0.0078125
      224           0.0692307            0.161538          -0.0230769           0.0078125
      225           0.0923076            0.138461          -0.0461538           0.0078125
      226            0.115384            0.115384          -0.0692307           0.0078125
      227           0.0923076           0.0923076          -0.0923076          0.00390625
      228          -0.0692307            0.253846           0.0692307           0.0078125
      229          -0.0461538            0.230769           0.0461538           0.0078125
      230          -0.0230769            0.207692           0.0230769           0.0078125
      231                   0            0.184615                   0          0.00390625
      232            0.253846          -0.0692307           0.0692307           0.0078125
      233           0.0923076           0.0923076            0.230769           0.0078125
      234            0.115384           0.0692307            0.207692           0.0078125
      235            0.138461           0.0461538            0.184615           0.0078125
      236            0.161538           0.0230769            0.161538           0.0078125
      237            0.184615                   0            0.138461           0.0078125
[...]
       4        2.34027     0.00781250
       5        9.11964        0.00000

 203/260 kpoint (Cartesian) = 0.184615 0.0461538 -0.0461538 (4526 pws)
       1       -3.12542     0.00781250
       2       -1.99895     0.00781250
       3        1.32762     0.00781250
       4        3.44591     0.00781250
       5        8.27517        0.00000

 204/260 kpoint (Cartesian) = 0.0230769 0.207692 0.115384 (4521 pws)
       1       -3.42242     0.00781250
       2       -1.66377     0.00781250
       3        1.60436     0.00781250
       4        2.85627     0.00781250
       5        9.60186        0.00000

 205/260 kpoint (Cartesian) = 0.0461538 0.184615 0.0923076 (4524 pws)
       1       -3.81665     0.00781250
       2       -1.25290     0.00781250
       3        1.41303     0.00781250
       4        3.27994     0.00781250
       5        10.1776        0.00000

 206/260 kpoint (Cartesian) = 0.0692307 0.161538 0.0692307 (4525 pws)
       1       -4.03503     0.00781250
       2       -1.33927     0.00781250
       3        1.68085     0.00781250
       4        4.04789     0.00781250
       5        9.04693        0.00000

 207/260 kpoint (Cartesian) = 0.0923076 0.138461 0.0461538 (4508 pws)
       1       -4.09333     0.00781250
       2       -1.50628     0.00781250
       3        2.30239     0.00781250
       4        3.75692     0.00781250
       5        10.2847        0.00000

 208/260 kpoint (Cartesian) = 0.115384 0.115384 0.0230769 (4525 pws)
       1       -4.03503     0.00781250
       2       -1.33927     0.00781250
       3        1.68085     0.00781250
       4        4.04789     0.00781250
       5        9.04693        0.00000

 209/260 kpoint (Cartesian) = 0.138461 0.0923076 0.00000 (4524 pws)
       1       -3.81665     0.00781250
       2       -1.25290     0.00781250
       3        1.41303     0.00781250
       4        3.27994     0.00781250
       5        10.1776        0.00000

 210/260 kpoint (Cartesian) = 0.161538 0.0692307 -0.0230769 (4521 pws)
       1       -3.42242     0.00781250
       2       -1.66377     0.00781250
       3        1.60436     0.00781250
       4        2.85627     0.00781250
       5        9.60186        0.00000

 211/260 kpoint (Cartesian) = 0.161538 0.0692307 -0.0692307 (4525 pws)
       1       -4.03503     0.00781250
       2       -1.33927     0.00781250
       3        1.68085     0.00781250
       4        4.04789     0.00781250
       5        9.04693        0.00000

 212/260 kpoint (Cartesian) = 0.00000 0.230769 0.0923076 (4524 pws)
       1       -3.81665     0.00781250
       2       -1.25290     0.00781250
       3        1.41303     0.00781250
       4        3.27994     0.00781250
       5        10.1776        0.00000

 213/260 kpoint (Cartesian) = 0.0230769 0.207692 0.0692307 (4521 pws)
       1       -3.42242     0.00781250
       2       -1.66377     0.00781250
       3        1.60436     0.00781250
       4        2.85627     0.00781250
       5        9.60186        0.00000

 214/260 kpoint (Cartesian) = 0.0461538 0.184615 0.0461538 (4526 pws)
       1       -3.12542     0.00781250
       2       -1.99895     0.00781250
       3        1.32762     0.00781250
       4        3.44591     0.00781250
       5        8.27517        0.00000

 215/260 kpoint (Cartesian) = 0.0692307 0.161538 0.0230769 (4521 pws)
       1       -3.42242     0.00781250
       2       -1.66377     0.00781250
       3        1.60436     0.00781250
       4        2.85627     0.00781250
       5        9.60186        0.00000

 216/260 kpoint (Cartesian) = 0.0923076 0.138461 0.00000 (4524 pws)
       1       -3.81665     0.00781250
       2       -1.25290     0.00781250
       3        1.41303     0.00781250
       4        3.27994     0.00781250
       5        10.1776        0.00000

 217/260 kpoint (Cartesian) = 0.115384 0.115384 -0.0230769 (4525 pws)
       1       -4.03503     0.00781250
       2       -1.33927     0.00781250
       3        1.68085     0.00781250
       4        4.04789     0.00781250
       5        9.04693        0.00000

 218/260 kpoint (Cartesian) = 0.138461 0.0923076 -0.0461538 (4508 pws)
       1       -4.09333     0.00781250
       2       -1.50628     0.00781250
       3        2.30239     0.00781250
       4        3.75692     0.00781250
       5        10.2847        0.00000

 219/260 kpoint (Cartesian) = 0.138461 0.0923076 -0.0923076 (4528 pws)
       1       -4.87671     0.00781250
       2       -1.04500     0.00781250
       3        3.42896     0.00781250
       4        4.73756     0.00781250
       5        9.46392        0.00000

 220/260 kpoint (Cartesian) = -0.0230769 0.253846 0.0692307 (4530 pws)
       1       -4.82818     0.00781250
       2      -0.430566     0.00781250
       3        2.45144     0.00781250
       4        4.01365     0.00781250
       5        10.0994        0.00000

 221/260 kpoint (Cartesian) = 0.00000 0.230769 0.0461538 (4510 pws)
       1       -4.40825     0.00781250
       2      -0.567369     0.00781250
       3        2.40462     0.00781250
       4        3.08065     0.00781250
       5        8.97941        0.00000

 222/260 kpoint (Cartesian) = 0.0230769 0.207692 0.0230769 (4525 pws)
       1       -3.62392     0.00781250
       2       -1.54980     0.00781250
       3        2.31863     0.00781250
       4        3.15846     0.00781250
       5        7.87770        0.00000

 223/260 kpoint (Cartesian) = 0.0461538 0.184615 0.00000 (4530 pws)
       1       -2.57495     0.00781250
       2       -2.57495     0.00781250
       3        2.34027     0.00781250
       4        2.34027     0.00781250
       5        9.11964        0.00000

 224/260 kpoint (Cartesian) = 0.0692307 0.161538 -0.0230769 (4521 pws)
       1       -3.42242     0.00781250
       2       -1.66377     0.00781250
       3        1.60436     0.00781250
       4        2.85627     0.00781250
       5        9.60186        0.00000

 225/260 kpoint (Cartesian) = 0.0923076 0.138461 -0.0461538 (4508 pws)
       1       -4.09333     0.00781250
       2       -1.50628     0.00781250
       3        2.30239     0.00781250
       4        3.75692     0.00781250
       5        10.2847        0.00000

 226/260 kpoint (Cartesian) = 0.115384 0.115384 -0.0692307 (4510 pws)
       1       -4.60141     0.00781250
       2       -1.46673     0.00781250
       3        3.63219     0.00781250
       4        4.41476     0.00781250
       5        9.30213        0.00000

 227/260 kpoint (Cartesian) = 0.0923076 0.0923076 -0.0923076 (4512 pws)
       1       -4.69784     0.00390625
       2       -1.72077     0.00390625
       3        4.81304     0.00390625
       4        4.81305     0.00390625
       5        8.49067        0.00000

 228/260 kpoint (Cartesian) = -0.0692307 0.253846 0.0692307 (4510 pws)
       1       -4.60141     0.00781250
       2       -1.46673     0.00781250
       3        3.63219     0.00781250
       4        4.41476     0.00781250
       5        9.30213        0.00000

 229/260 kpoint (Cartesian) = -0.0461538 0.230769 0.0461538 (4514 pws)
       1       -4.26653     0.00781250
       2       -1.04417     0.00781250
       3        2.20477     0.00781250
       4        3.69598     0.00781250
       5        8.63504        0.00000

 230/260 kpoint (Cartesian) = -0.0230769 0.207692 0.0230769 (4525 pws)
       1       -3.62392     0.00781250
       2       -1.54980     0.00781250
       3        2.31863     0.00781250
       4        3.15846     0.00781250
       5        7.87770        0.00000

 231/260 kpoint (Cartesian) = 0.00000 0.184615 0.00000 (4488 pws)
       1       -2.66516     0.00390625
       2       -2.66516     0.00390625
       3        2.96816     0.00390625
       4        2.96816     0.00390625
       5        7.68753        0.00000

 232/260 kpoint (Cartesian) = 0.253846 -0.0692307 0.0692307 (4510 pws)
       1       -4.60141     0.00781250
       2       -1.46673     0.00781250
       3        3.63219     0.00781250
       4        4.41476     0.00781250
       5        9.30213        0.00000

 233/260 kpoint (Cartesian) = 0.0923076 0.0923076 0.230769 (4528 pws)
       1       -4.87671     0.00781250
       2       -1.04500     0.00781250
       3        3.42896     0.00781250
       4        4.73756     0.00781250
       5        9.46392        0.00000

 234/260 kpoint (Cartesian) = 0.115384 0.0692307 0.207692 (4530 pws)
       1       -4.82818     0.00781250
       2      -0.430566     0.00781250
       3        2.45144     0.00781250
       4        4.01365     0.00781250
       5        10.0994        0.00000

 235/260 kpoint (Cartesian) = 0.138461 0.0461538 0.184615 (4510 pws)
       1       -4.40825     0.00781250
       2      -0.567369     0.00781250
       3        2.40462     0.00781250
       4        3.08065     0.00781250
       5        8.97941        0.00000

 236/260 kpoint (Cartesian) = 0.161538 0.0230769 0.161538 (4525 pws)
       1       -3.62392     0.00781250
       2       -1.54980     0.00781250
       3        2.31863     0.00781250
       4        3.15846     0.00781250
       5        7.87770        0.00000

 237/260 kpoint (Cartesian) = 0.184615 0.00000 0.138461 (4530 pws)
       1       -2.57495     0.00781250
       2       -2.57495     0.00781250
       3        2.34027     0.00781250
       4        2.34027     0.00781250
       5        9.11964        0.00000

 238/260 kpoint (Cartesian) = 0.207692 -0.0230769 0.115384 (4521 pws)
       1       -3.42242     0.00781250
       2       -1.66377     0.00781250
       3        1.60436     0.00781250
       4        2.85627     0.00781250
       5        9.60186        0.00000

 239/260 kpoint (Cartesian) = 0.230769 -0.0461538 0.0923076 (4508 pws)
       1       -4.09333     0.00781250
       2       -1.50628     0.00781250
       3        2.30239     0.00781250
       4        3.75692     0.00781250
       5        10.2847        0.00000

 240/260 kpoint (Cartesian) = 0.230769 -0.0461538 0.0461538 (4514 pws)
       1       -4.26653     0.00781250
       2       -1.04417     0.00781250
       3        2.20477     0.00781250
       4        3.69598     0.00781250
       5        8.63504        0.00000

 241/260 kpoint (Cartesian) = 0.0692307 0.115384 0.207692 (4530 pws)
       1       -4.82818     0.00781250
       2      -0.430566     0.00781250
       3        2.45144     0.00781250
       4        4.01365     0.00781250
       5        10.0994        0.00000

 242/260 kpoint (Cartesian) = 0.0923076 0.0923076 0.184615 (4514 pws)
       1       -5.02315     0.00781250
       2     -0.0194260     0.00781250
       3        1.95839     0.00781250
       4        4.66672     0.00781250
       5        9.72473        0.00000

 243/260 kpoint (Cartesian) = 0.115384 0.0692307 0.161538 (4530 pws)
       1       -4.82818     0.00781250
       2      -0.430566     0.00781250
       3        2.45144     0.00781250
       4        4.01365     0.00781250
       5        10.0994        0.00000

 244/260 kpoint (Cartesian) = 0.138461 0.0461538 0.138461 (4514 pws)
       1       -4.26653     0.00781250
       2       -1.04417     0.00781250
       3        2.20477     0.00781250
       4        3.69598     0.00781250
       5        8.63504        0.00000

 245/260 kpoint (Cartesian) = 0.161538 0.0230769 0.115384 (4521 pws)
       1       -3.42242     0.00781250
       2       -1.66377     0.00781250
       3        1.60436     0.00781250
       4        2.85627     0.00781250
       5        9.60186        0.00000

 246/260 kpoint (Cartesian) = 0.184615 0.00000 0.0923076 (4540 pws)
       1       -2.47514     0.00781250
       2       -2.47514     0.00781250
       3        1.84197     0.00781250
       4        1.84197     0.00781250
       5        11.6365        0.00000

 247/260 kpoint (Cartesian) = 0.207692 -0.0230769 0.0692307 (4521 pws)
       1       -3.42242     0.00781250
       2       -1.66377     0.00781250
       3        1.60436     0.00781250
       4        2.85627     0.00781250
       5        9.60186        0.00000

 248/260 kpoint (Cartesian) = 0.207692 -0.0230769 0.0230769 (4525 pws)
       1       -3.62392     0.00781250
       2       -1.54980     0.00781250
       3        2.31863     0.00781250
       4        3.15846     0.00781250
       5        7.87770        0.00000

 249/260 kpoint (Cartesian) = 0.0461538 0.138461 0.184615 (4510 pws)
       1       -4.40825     0.00781250
       2      -0.567369     0.00781250
       3        2.40462     0.00781250
       4        3.08065     0.00781250
       5        8.97941        0.00000

 250/260 kpoint (Cartesian) = 0.0692307 0.115384 0.161538 (4530 pws)
       1       -4.82818     0.00781250
       2      -0.430566     0.00781250
       3        2.45144     0.00781250
       4        4.01365     0.00781250
       5        10.0994        0.00000

 251/260 kpoint (Cartesian) = 0.0923076 0.0923076 0.138461 (4528 pws)
       1       -4.87671     0.00781250
       2       -1.04500     0.00781250
       3        3.42896     0.00781250
       4        4.73756     0.00781250
       5        9.46392        0.00000

 252/260 kpoint (Cartesian) = 0.115384 0.0692307 0.115384 (4510 pws)
       1       -4.60141     0.00781250
       2       -1.46673     0.00781250
       3        3.63219     0.00781250
       4        4.41476     0.00781250
       5        9.30213        0.00000

 253/260 kpoint (Cartesian) = 0.138461 0.0461538 0.0923076 (4508 pws)
       1       -4.09333     0.00781250
       2       -1.50628     0.00781250
       3        2.30239     0.00781250
       4        3.75692     0.00781250
       5        10.2847        0.00000

 254/260 kpoint (Cartesian) = 0.161538 0.0230769 0.0692307 (4521 pws)
       1       -3.42242     0.00781250
       2       -1.66377     0.00781250
       3        1.60436     0.00781250
       4        2.85627     0.00781250
       5        9.60186        0.00000

 255/260 kpoint (Cartesian) = 0.184615 0.00000 0.0461538 (4530 pws)
       1       -2.57495     0.00781250
       2       -2.57495     0.00781250
       3        2.34027     0.00781250
       4        2.34027     0.00781250
       5        9.11964        0.00000

 256/260 kpoint (Cartesian) = 0.184615 0.00000 0.00000 (4488 pws)
       1       -2.66516     0.00390625
       2       -2.66516     0.00390625
       3        2.96816     0.00390625
       4        2.96816     0.00390625
       5        7.68753        0.00000

 257/260 kpoint (Cartesian) = 0.0230769 0.161538 0.161538 (4525 pws)
       1       -3.62392     0.00781250
       2       -1.54980     0.00781250
       3        2.31863     0.00781250
       4        3.15846     0.00781250
       5        7.87770        0.00000

 258/260 kpoint (Cartesian) = 0.0461538 0.138461 0.138461 (4514 pws)
       1       -4.26653     0.00781250
       2       -1.04417     0.00781250
       3        2.20477     0.00781250
       4        3.69598     0.00781250
       5        8.63504        0.00000

 259/260 kpoint (Cartesian) = 0.0692307 0.115384 0.115384 (4510 pws)
       1       -4.60141     0.00781250
       2       -1.46673     0.00781250
       3        3.63219     0.00781250
       4        4.41476     0.00781250
       5        9.30213        0.00000

 260/260 kpoint (Cartesian) = 0.0923076 0.0923076 0.0923076 (4512 pws)
       1       -4.69784     0.00390625
       2       -1.72077     0.00390625
       3        4.81304     0.00390625
       4        4.81305     0.00390625
       5        8.49067        0.00000

 EFERMI = 6.732895868769774 eV
 OUT.ABACUS/ final etot is -214.0648888652342 eV


 --------------------------------------------
 !FINAL_ETOT_IS -214.0648888652342 eV
 --------------------------------------------






  |CLASS_NAME---------|NAME---------------|TIME(Sec)-----|CALLS----|AVG------|PER%-------
                                      total         2121.6        11   1.9e+02   1.0e+02%
               Run_lcao           lcao_line         2121.5         1   2.1e+03    1.e+02%
               PW_Basis          recip2real        0.35285       227    0.0016     0.017%
              Potential            v_of_rho         6.8606        45      0.15      0.32%
          XC_Functional                v_xc         1342.8        63       21.       63.%
               PW_Basis          real2recip        0.40380       322    0.0013     0.019%
           H_Hartree_pw           v_hartree        0.15847        45    0.0035    0.0075%
            NOrbital_Lm       extra_uniform        0.66545      1833   0.00036     0.031%
          Mathzone_Add1Cubic_Spline_Interpolation        0.17060      1833   9.3e-05    0.0080%
            ORB_control      set_orb_tables        0.79959         1      0.80     0.038%
         ORB_gen_tables          gen_tables        0.79957         1      0.80     0.038%
          ORB_table_phi          init_Table        0.42824         1      0.43     0.020%
          ORB_table_phi      cal_ST_Phi12_R         10.794      3388    0.0032      0.51%
         ORB_table_beta     init_Table_Beta        0.17649         1      0.18    0.0083%
         ORB_table_beta       VNL_PhiBeta_R        0.17520        26    0.0067    0.0083%
        ORB_gaunt_table       init_Gaunt_CH        0.18827         4     0.047    0.0089%
        ORB_gaunt_table          init_Gaunt         1.7324         4      0.43     0.082%
        ORB_gaunt_table        Get_Gaunt_SH         10.146   3636325   2.8e-06      0.48%
              LOOP_ions            opt_ions         2109.4         1   2.1e+03       99.%
        ESolver_KS_LCAO                 Run         2109.4         1   2.1e+03       99.%
        ESolver_KS_LCAO           beforescf         57.247         1       57.       2.7%
            Grid_Driver           Find_atom        0.53732     45966   1.2e-05     0.025%
            LCAO_Hamilt   set_lcao_matrices        0.19594         1      0.20    0.0092%
        LCAO_gen_fixedHbuild_Nonlocal_mu_new        0.15863         1      0.16    0.0075%
            HSolverLCAO               solve         91.870        44       2.1       4.3%
             HamiltLCAO              each_k         27.902     11440    0.0024       1.3%
         Gint_interface            cal_gint         39.129        88      0.44       1.8%
             HamiltLCAO                 H_k         24.108      5720    0.0042       1.1%
            LCAO_Hamilt        calculate_Hk         28.365     11440    0.0025       1.3%
                 Gint_k        folding_vl_k         2.1315     11440   0.00019      0.10%
                 Gint_k              Distri        0.43828     11440   3.8e-05     0.021%
               LCAO_nnr      folding_fixedH         26.119     11440    0.0023       1.2%
             Efficience                 H_k         24.110      5720    0.0042       1.1%
              DiagoElpa          elpa_solve         16.914     11440    0.0015      0.80%
          ElecStateLCAO            psiToRho         18.600        44      0.42      0.88%
            LCAO_Charge            cal_dk_k         4.3169        44     0.098      0.20%
                 Charge             mix_rho        0.35322        34     0.010     0.017%
 ----------------------------------------------------------------------------------------

 CLASS_NAME---------|NAME---------------|MEMORY(MB)--------
                                         7289.
        ORB_table_phi               Jl(x)          921.9
         Charge_Pulay                Rrho          6.750
         Charge_Pulay               dRrho          5.906
         Charge_Pulay                drho          5.906
        init_meshball        meshball_pos          2.980
        Grid_Meshcell        index2normal          2.875
        Grid_Meshcell         index2ucell          2.875
        ORB_table_phi         Table_SR&TR          1.225
 ----------------------------------------------------------

 Start  Time  : Tue Jul  5 16:50:52 2022
 Finish Time  : Tue Jul  5 17:26:13 2022
 Total  Time  : 0 h 35 mins 21 secs 
