                                                                                     
                             WELCOME TO ABACUS                                       
                                                                                     
               'Atomic-orbital Based Ab-initio Computation at UStc'                  
                                                                                     
                     Website: http://abacus.ustc.edu.cn/                             
                                                                                     
    Version: Parallel, in development
    Processor Number is 8
    Start Time is Wed Jul  6 15:44:39 2022
                                                                                     
 ------------------------------------------------------------------------------------

 READING GENERAL INFORMATION
                           global_out_dir = OUT.ABACUS/
                           global_in_card = INPUT
                               pseudo_dir = 
                              orbital_dir = 
                              pseudo_type = auto
                                    DRANK = 1
                                    DSIZE = 8
                                   DCOLOR = 1
                                    GRANK = 1
                                    GSIZE = 1




 >>>>>>>>>>>>>>>>>>>>>>>>>>>>>>>>>>>>>>>>>>>>>>>>>>>>>>>>>>>>>>>>>>>>>>
 |                                                                    |
 | Reading atom information in unitcell:                              |
 | From the input file and the structure file we know the number of   |
 | different elments in this unitcell, then we list the detail        |
 | information for each element, especially the zeta and polar atomic |
 | orbital number for each element. The total atom number is counted. |
 | We calculate the nearest atom distance for each atom and show the  |
 | Cartesian and Direct coordinates for each atom. We list the file   |
 | address for atomic orbitals. The volume and the lattice vectors    |
 | in real and reciprocal space is also shown.                        |
 |                                                                    |
 <<<<<<<<<<<<<<<<<<<<<<<<<<<<<<<<<<<<<<<<<<<<<<<<<<<<<<<<<<<<<<<<<<<<<<




 READING UNITCELL INFORMATION
                                    ntype = 1
                 atom label for species 1 = Si
                  lattice constant (Bohr) = 10.2
              lattice constant (Angstrom) = 5.39761

 READING ATOM TYPE 1
                               atom label = Si
                      L=0, number of zeta = 2
                      L=1, number of zeta = 2
                      L=2, number of zeta = 1
             number of atom for this type = 2
                      start magnetization = 0
                      start magnetization = 0

                        TOTAL ATOM NUMBER = 2

 CARTESIAN COORDINATES ( UNIT = 10.2 Bohr ).
         atom                   x                   y                   z                 mag                  vx                  vy                  vz
     tauc_Si1                   0                   0                   0                   0                   0                   0                   0
     tauc_Si2                0.25                0.25                0.25                   0                   0                   0                   0


 READING ORBITAL FILE NAMES FOR LCAO
 orbital file: ./Si_lda_8.0au_50Ry_2s2p1d

                          Volume (Bohr^3) = 265.302
                             Volume (A^3) = 39.3136533177

 Lattice vectors: (Cartesian coordinate: in unit of a_0)
                 +0.5                +0.5                  +0
                 +0.5                  +0                +0.5
                   +0                +0.5                +0.5
 Reciprocal vectors: (Cartesian coordinate: in unit of 2 pi/a_0)
                   +1                  +1                  -1
                   +1                  -1                  +1
                   -1                  +1                  +1




 >>>>>>>>>>>>>>>>>>>>>>>>>>>>>>>>>>>>>>>>>>>>>>>>>>>>>>>>>>>>>>>>>>>>>>
 |                                                                    |
 | Reading pseudopotentials files:                                    |
 | The pseudopotential file is in UPF format. The 'NC' indicates that |
 | the type of pseudopotential is 'norm conserving'. Functional of    |
 | exchange and correlation is decided by 4 given parameters in UPF   |
 | file.  We also read in the 'core correction' if there exists.      |
 | Also we can read the valence electrons number and the maximal      |
 | angular momentum used in this pseudopotential. We also read in the |
 | trail wave function, trail atomic density and local-pseudopotential|
 | on logrithmic grid. The non-local pseudopotential projector is also|
 | read in if there is any.                                           |
 |                                                                    |
 <<<<<<<<<<<<<<<<<<<<<<<<<<<<<<<<<<<<<<<<<<<<<<<<<<<<<<<<<<<<<<<<<<<<<<




                PAO radial cut off (Bohr) = 15

 Read in pseudopotential file is Si.pz-vbc.UPF
                     pseudopotential type = NC
          exchange-correlation functional = PZ
                 nonlocal core correction = 0
                        valence electrons = 4
                                     lmax = 1
                           number of zeta = 2
                     number of projectors = 2
                           L of projector = 0
                           L of projector = 1
     initial pseudo atomic orbital number = 8
                                   NLOCAL = 26

 SETUP THE ELECTRONS NUMBER
            electron number of element Si = 4
      total electron number of element Si = 8
                           occupied bands = 4
                                   NLOCAL = 26
                                   NBANDS = 8
                                   NBANDS = 8
 DONE : SETUP UNITCELL Time : 0.0191931724548 (SEC)





 >>>>>>>>>>>>>>>>>>>>>>>>>>>>>>>>>>>>>>>>>>>>>>>>>>>>>>>>>>>>>>>>>>>>>>
 |                                                                    |
 | Setup K-points                                                     |
 | We setup the k-points according to input parameters.               |
 | The reduced k-points are set according to symmetry operations.     |
 | We treat the spin as another set of k-points.                      |
 |                                                                    |
 <<<<<<<<<<<<<<<<<<<<<<<<<<<<<<<<<<<<<<<<<<<<<<<<<<<<<<<<<<<<<<<<<<<<<<





 SETUP K-POINTS
                                    nspin = 2
                   Input type of k points = Monkhorst-Pack(Gamma)
                                   nkstot = 64

  KPOINTS            DIRECT_X            DIRECT_Y            DIRECT_Z              WEIGHT
        1                   0                   0                   0            0.015625
        2                0.25                   0                   0            0.015625
        3                 0.5                   0                   0            0.015625
        4                0.75                   0                   0            0.015625
        5                   0                0.25                   0            0.015625
        6                0.25                0.25                   0            0.015625
        7                 0.5                0.25                   0            0.015625
        8                0.75                0.25                   0            0.015625
        9                   0                 0.5                   0            0.015625
       10                0.25                 0.5                   0            0.015625
       11                 0.5                 0.5                   0            0.015625
       12                0.75                 0.5                   0            0.015625
       13                   0                0.75                   0            0.015625
       14                0.25                0.75                   0            0.015625
       15                 0.5                0.75                   0            0.015625
       16                0.75                0.75                   0            0.015625
       17                   0                   0                0.25            0.015625
       18                0.25                   0                0.25            0.015625
       19                 0.5                   0                0.25            0.015625
       20                0.75                   0                0.25            0.015625
       21                   0                0.25                0.25            0.015625
       22                0.25                0.25                0.25            0.015625
       23                 0.5                0.25                0.25            0.015625
       24                0.75                0.25                0.25            0.015625
       25                   0                 0.5                0.25            0.015625
       26                0.25                 0.5                0.25            0.015625
       27                 0.5                 0.5                0.25            0.015625
       28                0.75                 0.5                0.25            0.015625
       29                   0                0.75                0.25            0.015625
       30                0.25                0.75                0.25            0.015625
       31                 0.5                0.75                0.25            0.015625
       32                0.75                0.75                0.25            0.015625
       33                   0                   0                 0.5            0.015625
       34                0.25                   0                 0.5            0.015625
       35                 0.5                   0                 0.5            0.015625
       36                0.75                   0                 0.5            0.015625
       37                   0                0.25                 0.5            0.015625
       38                0.25                0.25                 0.5            0.015625
       39                 0.5                0.25                 0.5            0.015625
       40                0.75                0.25                 0.5            0.015625
       41                   0                 0.5                 0.5            0.015625
       42                0.25                 0.5                 0.5            0.015625
       43                 0.5                 0.5                 0.5            0.015625
       44                0.75                 0.5                 0.5            0.015625
       45                   0                0.75                 0.5            0.015625
       46                0.25                0.75                 0.5            0.015625
       47                 0.5                0.75                 0.5            0.015625
       48                0.75                0.75                 0.5            0.015625
       49                   0                   0                0.75            0.015625
       50                0.25                   0                0.75            0.015625
       51                 0.5                   0                0.75            0.015625
       52                0.75                   0                0.75            0.015625
       53                   0                0.25                0.75            0.015625
       54                0.25                0.25                0.75            0.015625
       55                 0.5                0.25                0.75            0.015625
       56                0.75                0.25                0.75            0.015625
       57                   0                 0.5                0.75            0.015625
       58                0.25                 0.5                0.75            0.015625
       59                 0.5                 0.5                0.75            0.015625
       60                0.75                 0.5                0.75            0.015625
       61                   0                0.75                0.75            0.015625
       62                0.25                0.75                0.75            0.015625
       63                 0.5                0.75                0.75            0.015625
       64                0.75                0.75                0.75            0.015625

           k-point number in this process = 64
       minimum distributed K point number = 64
                             nks(nspin=2) = 128
                          nkstot(nspin=2) = 128

  KPOINTS         CARTESIAN_X         CARTESIAN_Y         CARTESIAN_Z              WEIGHT
        1                   0                   0                   0            0.015625
        2                0.25                0.25               -0.25            0.015625
        3                 0.5                 0.5                -0.5            0.015625
        4                0.75                0.75               -0.75            0.015625
        5                0.25               -0.25                0.25            0.015625
        6                 0.5                   0                   0            0.015625
        7                0.75                0.25               -0.25            0.015625
        8                   1                 0.5                -0.5            0.015625
        9                 0.5                -0.5                 0.5            0.015625
       10                0.75               -0.25                0.25            0.015625
       11                   1                   0                   0            0.015625
       12                1.25                0.25               -0.25            0.015625
       13                0.75               -0.75                0.75            0.015625
       14                   1                -0.5                 0.5            0.015625
       15                1.25               -0.25                0.25            0.015625
       16                 1.5                   0                   0            0.015625
       17               -0.25                0.25                0.25            0.015625
       18                   0                 0.5                   0            0.015625
       19                0.25                0.75               -0.25            0.015625
       20                 0.5                   1                -0.5            0.015625
       21                   0                   0                 0.5            0.015625
       22                0.25                0.25                0.25            0.015625
       23                 0.5                 0.5                   0            0.015625
       24                0.75                0.75               -0.25            0.015625
       25                0.25               -0.25                0.75            0.015625
       26                 0.5                   0                 0.5            0.015625
       27                0.75                0.25                0.25            0.015625
       28                   1                 0.5                   0            0.015625
       29                 0.5                -0.5                   1            0.015625
       30                0.75               -0.25                0.75            0.015625
       31                   1                   0                 0.5            0.015625
       32                1.25                0.25                0.25            0.015625
       33                -0.5                 0.5                 0.5            0.015625
       34               -0.25                0.75                0.25            0.015625
       35                   0                   1                   0            0.015625
       36                0.25                1.25               -0.25            0.015625
       37               -0.25                0.25                0.75            0.015625
       38                   0                 0.5                 0.5            0.015625
       39                0.25                0.75                0.25            0.015625
       40                 0.5                   1                   0            0.015625
       41                   0                   0                   1            0.015625
       42                0.25                0.25                0.75            0.015625
       43                 0.5                 0.5                 0.5            0.015625
       44                0.75                0.75                0.25            0.015625
       45                0.25               -0.25                1.25            0.015625
       46                 0.5                   0                   1            0.015625
       47                0.75                0.25                0.75            0.015625
       48                   1                 0.5                 0.5            0.015625
       49               -0.75                0.75                0.75            0.015625
       50                -0.5                   1                 0.5            0.015625
       51               -0.25                1.25                0.25            0.015625
       52                   0                 1.5                   0            0.015625
       53                -0.5                 0.5                   1            0.015625
       54               -0.25                0.75                0.75            0.015625
       55                   0                   1                 0.5            0.015625
       56                0.25                1.25                0.25            0.015625
       57               -0.25                0.25                1.25            0.015625
       58                   0                 0.5                   1            0.015625
       59                0.25                0.75                0.75            0.015625
       60                 0.5                   1                 0.5            0.015625
       61                   0                   0                 1.5            0.015625
       62                0.25                0.25                1.25            0.015625
       63                 0.5                 0.5                   1            0.015625
       64                0.75                0.75                0.75            0.015625
       65                   0                   0                   0            0.015625
       66                0.25                0.25               -0.25            0.015625
       67                 0.5                 0.5                -0.5            0.015625
       68                0.75                0.75               -0.75            0.015625
       69                0.25               -0.25                0.25            0.015625
       70                 0.5                   0                   0            0.015625
       71                0.75                0.25               -0.25            0.015625
       72                   1                 0.5                -0.5            0.015625
       73                 0.5                -0.5                 0.5            0.015625
       74                0.75               -0.25                0.25            0.015625
       75                   1                   0                   0            0.015625
       76                1.25                0.25               -0.25            0.015625
       77                0.75               -0.75                0.75            0.015625
       78                   1                -0.5                 0.5            0.015625
       79                1.25               -0.25                0.25            0.015625
       80                 1.5                   0                   0            0.015625
       81               -0.25                0.25                0.25            0.015625
       82                   0                 0.5                   0            0.015625
       83                0.25                0.75               -0.25            0.015625
       84                 0.5                   1                -0.5            0.015625
       85                   0                   0                 0.5            0.015625
       86                0.25                0.25                0.25            0.015625
       87                 0.5                 0.5                   0            0.015625
       88                0.75                0.75               -0.25            0.015625
       89                0.25               -0.25                0.75            0.015625
       90                 0.5                   0                 0.5            0.015625
       91                0.75                0.25                0.25            0.015625
       92                   1                 0.5                   0            0.015625
       93                 0.5                -0.5                   1            0.015625
       94                0.75               -0.25                0.75            0.015625
       95                   1                   0                 0.5            0.015625
       96                1.25                0.25                0.25            0.015625
       97                -0.5                 0.5                 0.5            0.015625
       98               -0.25                0.75                0.25            0.015625
       99                   0                   1                   0            0.015625
      100                0.25                1.25               -0.25            0.015625
      101               -0.25                0.25                0.75            0.015625
      102                   0                 0.5                 0.5            0.015625
      103                0.25                0.75                0.25            0.015625
      104                 0.5                   1                   0            0.015625
      105                   0                   0                   1            0.015625
      106                0.25                0.25                0.75            0.015625
      107                 0.5                 0.5                 0.5            0.015625
      108                0.75                0.75                0.25            0.015625
      109                0.25               -0.25                1.25            0.015625
      110                 0.5                   0                   1            0.015625
      111                0.75                0.25                0.75            0.015625
      112                   1                 0.5                 0.5            0.015625
      113               -0.75                0.75                0.75            0.015625
      114                -0.5                   1                 0.5            0.015625
      115               -0.25                1.25                0.25            0.015625
      116                   0                 1.5                   0            0.015625
      117                -0.5                 0.5                   1            0.015625
      118               -0.25                0.75                0.75            0.015625
      119                   0                   1                 0.5            0.015625
      120                0.25                1.25                0.25            0.015625
      121               -0.25                0.25                1.25            0.015625
      122                   0                 0.5                   1            0.015625
      123                0.25                0.75                0.75            0.015625
      124                 0.5                   1                 0.5            0.015625
      125                   0                   0                 1.5            0.015625
      126                0.25                0.25                1.25            0.015625
      127                 0.5                 0.5                   1            0.015625
      128                0.75                0.75                0.75            0.015625

  KPOINTS            DIRECT_X            DIRECT_Y            DIRECT_Z              WEIGHT
        1                   0                   0                   0            0.015625
        2                0.25                   0                   0            0.015625
        3                 0.5                   0                   0            0.015625
        4                0.75                   0                   0            0.015625
        5                   0                0.25                   0            0.015625
        6                0.25                0.25                   0            0.015625
        7                 0.5                0.25                   0            0.015625
        8                0.75                0.25                   0            0.015625
        9                   0                 0.5                   0            0.015625
       10                0.25                 0.5                   0            0.015625
       11                 0.5                 0.5                   0            0.015625
       12                0.75                 0.5                   0            0.015625
       13                   0                0.75                   0            0.015625
       14                0.25                0.75                   0            0.015625
       15                 0.5                0.75                   0            0.015625
       16                0.75                0.75                   0            0.015625
       17                   0                   0                0.25            0.015625
       18                0.25                   0                0.25            0.015625
       19                 0.5                   0                0.25            0.015625
       20                0.75                   0                0.25            0.015625
       21                   0                0.25                0.25            0.015625
       22                0.25                0.25                0.25            0.015625
       23                 0.5                0.25                0.25            0.015625
       24                0.75                0.25                0.25            0.015625
       25                   0                 0.5                0.25            0.015625
       26                0.25                 0.5                0.25            0.015625
       27                 0.5                 0.5                0.25            0.015625
       28                0.75                 0.5                0.25            0.015625
       29                   0                0.75                0.25            0.015625
       30                0.25                0.75                0.25            0.015625
       31                 0.5                0.75                0.25            0.015625
       32                0.75                0.75                0.25            0.015625
       33                   0                   0                 0.5            0.015625
       34                0.25                   0                 0.5            0.015625
       35                 0.5                   0                 0.5            0.015625
       36                0.75                   0                 0.5            0.015625
       37                   0                0.25                 0.5            0.015625
       38                0.25                0.25                 0.5            0.015625
       39                 0.5                0.25                 0.5            0.015625
       40                0.75                0.25                 0.5            0.015625
       41                   0                 0.5                 0.5            0.015625
       42                0.25                 0.5                 0.5            0.015625
       43                 0.5                 0.5                 0.5            0.015625
       44                0.75                 0.5                 0.5            0.015625
       45                   0                0.75                 0.5            0.015625
       46                0.25                0.75                 0.5            0.015625
       47                 0.5                0.75                 0.5            0.015625
       48                0.75                0.75                 0.5            0.015625
       49                   0                   0                0.75            0.015625
       50                0.25                   0                0.75            0.015625
       51                 0.5                   0                0.75            0.015625
       52                0.75                   0                0.75            0.015625
       53                   0                0.25                0.75            0.015625
       54                0.25                0.25                0.75            0.015625
       55                 0.5                0.25                0.75            0.015625
       56                0.75                0.25                0.75            0.015625
       57                   0                 0.5                0.75            0.015625
       58                0.25                 0.5                0.75            0.015625
       59                 0.5                 0.5                0.75            0.015625
       60                0.75                 0.5                0.75            0.015625
       61                   0                0.75                0.75            0.015625
       62                0.25                0.75                0.75            0.015625
       63                 0.5                0.75                0.75            0.015625
       64                0.75                0.75                0.75            0.015625
       65                   0                   0                   0            0.015625
       66                0.25                   0                   0            0.015625
       67                 0.5                   0                   0            0.015625
       68                0.75                   0                   0            0.015625
       69                   0                0.25                   0            0.015625
       70                0.25                0.25                   0            0.015625
       71                 0.5                0.25                   0            0.015625
       72                0.75                0.25                   0            0.015625
       73                   0                 0.5                   0            0.015625
       74                0.25                 0.5                   0            0.015625
       75                 0.5                 0.5                   0            0.015625
       76                0.75                 0.5                   0            0.015625
       77                   0                0.75                   0            0.015625
       78                0.25                0.75                   0            0.015625
       79                 0.5                0.75                   0            0.015625
       80                0.75                0.75                   0            0.015625
       81                   0                   0                0.25            0.015625
       82                0.25                   0                0.25            0.015625
       83                 0.5                   0                0.25            0.015625
       84                0.75                   0                0.25            0.015625
       85                   0                0.25                0.25            0.015625
       86                0.25                0.25                0.25            0.015625
       87                 0.5                0.25                0.25            0.015625
       88                0.75                0.25                0.25            0.015625
       89                   0                 0.5                0.25            0.015625
       90                0.25                 0.5                0.25            0.015625
       91                 0.5                 0.5                0.25            0.015625
       92                0.75                 0.5                0.25            0.015625
       93                   0                0.75                0.25            0.015625
       94                0.25                0.75                0.25            0.015625
       95                 0.5                0.75                0.25            0.015625
       96                0.75                0.75                0.25            0.015625
       97                   0                   0                 0.5            0.015625
       98                0.25                   0                 0.5            0.015625
       99                 0.5                   0                 0.5            0.015625
      100                0.75                   0                 0.5            0.015625
      101                   0                0.25                 0.5            0.015625
      102                0.25                0.25                 0.5            0.015625
      103                 0.5                0.25                 0.5            0.015625
      104                0.75                0.25                 0.5            0.015625
      105                   0                 0.5                 0.5            0.015625
      106                0.25                 0.5                 0.5            0.015625
      107                 0.5                 0.5                 0.5            0.015625
      108                0.75                 0.5                 0.5            0.015625
      109                   0                0.75                 0.5            0.015625
      110                0.25                0.75                 0.5            0.015625
      111                 0.5                0.75                 0.5            0.015625
      112                0.75                0.75                 0.5            0.015625
      113                   0                   0                0.75            0.015625
      114                0.25                   0                0.75            0.015625
      115                 0.5                   0                0.75            0.015625
      116                0.75                   0                0.75            0.015625
      117                   0                0.25                0.75            0.015625
      118                0.25                0.25                0.75            0.015625
      119                 0.5                0.25                0.75            0.015625
      120                0.75                0.25                0.75            0.015625
      121                   0                 0.5                0.75            0.015625
      122                0.25                 0.5                0.75            0.015625
      123                 0.5                 0.5                0.75            0.015625
      124                0.75                 0.5                0.75            0.015625
      125                   0                0.75                0.75            0.015625
      126                0.25                0.75                0.75            0.015625
      127                 0.5                0.75                0.75            0.015625
      128                0.75                0.75                0.75            0.015625
 DONE : INIT K-POINTS Time : 0.021035194397 (SEC)





 >>>>>>>>>>>>>>>>>>>>>>>>>>>>>>>>>>>>>>>>>>>>>>>>>>>>>>>>>>>>>>>>>>>>>>
 |                                                                    |
 | Setup plane waves:                                                 |
 | Use the energy cutoff and the lattice vectors to generate the      |
 | dimensions of FFT grid. The number of FFT grid on each processor   |
 | is 'nrxx'. The number of plane wave basis in reciprocal space is   |
 | different for charege/potential and wave functions. We also set    |
 | the 'sticks' for the parallel of FFT.                              |
 |                                                                    |
 <<<<<<<<<<<<<<<<<<<<<<<<<<<<<<<<<<<<<<<<<<<<<<<<<<<<<<<<<<<<<<<<<<<<<<





 SETUP THE PLANE WAVE BASIS
     energy cutoff for wavefunc (unit:Ry) = 50
            [fft grid for wave functions] = 36, 36, 36
          [fft grid for charge/potential] = 36, 36, 36
                      [fft grid division] = 2, 2, 2
      [big fft grid for charge/potential] = 18, 18, 18
                                     nbxx = 972
                                     nrxx = 7776

 SETUP PLANE WAVES FOR CHARGE/POTENTIAL
                    number of plane waves = 12627
                         number of sticks = 721

 SETUP PLANE WAVES FOR WAVE FUNCTIONS
                    number of plane waves = 2277
                         number of sticks = 235

 PARALLEL PW FOR CHARGE/POTENTIAL
     PROC   COLUMNS(POT)             PW
        1             90           1579
        2             90           1579
        3             90           1578
        4             90           1578
        5             90           1578
        6             90           1578
        7             91           1579
        8             90           1578
 --------------- sum -------------------
        8            721          12627

 PARALLEL PW FOR WAVE FUNCTIONS
     PROC     COLUMNS(W)             PW
        1             30            285
        2             28            285
        3             30            284
        4             30            285
        5             30            285
        6             29            284
        7             29            284
        8             29            285
 --------------- sum -------------------
        8            235           2277

 SETUP COORDINATES OF PLANE WAVES
              number of total plane waves = 12627

 SETUP COORDINATES OF PLANE WAVES
                            number of |g| = 176
                                  max |g| = 524
                                  min |g| = 0
 DONE : INIT PLANEWAVE Time : 0.0379891395569 (SEC)

 DONE : INIT CHARGE Time : 0.0386061668396 (SEC)

 DONE : INIT POTENTIAL Time : 0.0389330387115 (SEC)





 >>>>>>>>>>>>>>>>>>>>>>>>>>>>>>>>>>>>>>>>>>>>>>>>>>>>>>>>>>>>>>>>>>>>>>
 |                                                                    |
 | Setup numerical orbitals:                                          |
 | This part setup: numerical atomic orbitals, non-local projectors   |
 | and neutral potential (1D). The atomic orbitals information        |
 | including the radius, angular momentum and zeta number.            |
 | The neutral potential is the sum of local part of pseudopotential  |
 | and potential given by atomic charge, they will cancel out beyond  |
 | a certain radius cutoff, because the Z/r character.                |
 |                                                                    |
 <<<<<<<<<<<<<<<<<<<<<<<<<<<<<<<<<<<<<<<<<<<<<<<<<<<<<<<<<<<<<<<<<<<<<<





 SETUP ONE DIMENSIONAL ORBITALS/POTENTIAL
                        delta k  (1/Bohr) = 0.01
                        delta r    (Bohr) = 0.01
                        dr_uniform (Bohr) = 0.001
                        rmax       (Bohr) = 30
                                    kmesh = 711
      ORBITAL  L  N      nr      dr    RCUT  CHECK_UNIT    NEW_UNIT
            1  0  0     801    0.01       8           1           1
            2  0  1     801    0.01       8           1           1
            3  1  0     801    0.01       8           1           1
            4  1  1     801    0.01       8           1           1
            5  2  0     801    0.01       8           1           1
 SET NONLOCAL PSEUDOPOTENTIAL PROJECTORS
 max number of nonlocal projetors among all species is 2

 SETUP THE TWO-CENTER INTEGRATION TABLES

 SETUP THE DIVISION OF H/S MATRIX
 divide the H&S matrix using 2D block algorithms.
                                     nb2d = 1
                  trace_loc_row dimension = 26
                  trace_loc_col dimension = 26
                                     nloc = 91
                                 init_chg = atomic

 -------------------------------------------
 STEP OF ION RELAXATION : 1
 -------------------------------------------




 >>>>>>>>>>>>>>>>>>>>>>>>>>>>>>>>>>>>>>>>>>>>>>>>>>>>>>>>>>>>>>>>>>>>>>
 |                                                                    |
 | Search adjacent atoms:                                             |
 | Set the adjacent atoms for each atom and set the periodic boundary |
 | condition for the atoms on real space FFT grid. For k-dependent    |
 | algorithm, we also need to set the sparse H and S matrix element   |
 | for each atom.                                                     |
 |                                                                    |
 <<<<<<<<<<<<<<<<<<<<<<<<<<<<<<<<<<<<<<<<<<<<<<<<<<<<<<<<<<<<<<<<<<<<<<





 SETUP SEARCHING RADIUS FOR PROGRAM TO SEARCH ADJACENT ATOMS
                  longest orb rcut (Bohr) = 8
   longest nonlocal projector rcut (Bohr) = 5.01
              searching radius is (Bohr)) = 26
         searching radius unit is (Bohr)) = 10.2

 SETUP EXTENDED REAL SPACE GRID FOR GRID INTEGRATION
                        [real space grid] = 36, 36, 36
               [big cell numbers in grid] = 18, 18, 18
           [meshcell numbers in big cell] = 2, 2, 2
                      [extended fft grid] = 25, 25, 25
              [dimension of extened grid] = 69, 69, 69
                            UnitCellTotal = 125
              Atom number in sub-FFT-grid = 2
    Local orbitals number in sub-FFT-grid = 26
                                ParaV.nnr = 20634
                                     nnrg = 41574
                                nnrg_last = 32764
                                 nnrg_now = 41574

 LCAO ALGORITHM ------------- ION =    1  ELEC =    1 --------------------------------
 Memory of pvpR : 0.634 MB
          total magnetism (Bohr mag/cell) = 0
       absolute magnetism (Bohr mag/cell) = 0
                                    nelec = 8

 Density error is 0.165162992955

       Energy                       Rydberg                            eV
   E_KohnSham                -15.7189057263                -213.866684203
     E_Harris                -15.7417296985                -214.177220275
      E_Fermi                +0.43350622649                +5.89815479874

 LCAO ALGORITHM ------------- ION =    1  ELEC =    2 --------------------------------
 Memory of pvpR : 0.634368896484 MB
          total magnetism (Bohr mag/cell) = 0
       absolute magnetism (Bohr mag/cell) = 0
                                    nelec = 8

 Density error is 0.0347961380823

       Energy                       Rydberg                            eV
   E_KohnSham                -15.7224771828                -213.915276361
     E_Harris                -15.7226090945                -213.917071111
      E_Fermi               +0.477940854505                +6.50271892826

 LCAO ALGORITHM ------------- ION =    1  ELEC =    3 --------------------------------
 Memory of pvpR : 0.634368896484 MB
          total magnetism (Bohr mag/cell) = 0
       absolute magnetism (Bohr mag/cell) = 0
                                    nelec = 8

 Density error is 0.00413061496045

       Energy                       Rydberg                            eV
   E_KohnSham                -15.7225389738                -213.916117071
     E_Harris                -15.7225388086                -213.916114823
      E_Fermi               +0.484463352604                +6.59146206759

 LCAO ALGORITHM ------------- ION =    1  ELEC =    4 --------------------------------
 Memory of pvpR : 0.634368896484 MB
          total magnetism (Bohr mag/cell) = 0
       absolute magnetism (Bohr mag/cell) = 0
                                    nelec = 8

 Density error is 4.85865709931e-05

       Energy                       Rydberg                            eV
   E_KohnSham                -15.7225397465                -213.916127584
     E_Harris                -15.7225397444                -213.916127555
      E_Fermi               +0.484028350125                +6.58554355524

 LCAO ALGORITHM ------------- ION =    1  ELEC =    5 --------------------------------
 Memory of pvpR : 0.634368896484 MB
          total magnetism (Bohr mag/cell) = 0
       absolute magnetism (Bohr mag/cell) = 0
                                    nelec = 8

 Density error is 6.05880252998e-06

       Energy                       Rydberg                            eV
   E_KohnSham                -15.7225397443                -213.916127555
     E_Harris                -15.7225397444                -213.916127555
      E_Fermi               +0.484037654802                +6.58567015187

 LCAO ALGORITHM ------------- ION =    1  ELEC =    6 --------------------------------
 Memory of pvpR : 0.634368896484 MB
          total magnetism (Bohr mag/cell) = 0
       absolute magnetism (Bohr mag/cell) = 0
                                    nelec = 8

 Density error is 1.60845202628e-07

       Energy                       Rydberg                            eV
   E_KohnSham                -15.7225397446                -213.916127558
     E_Harris                -15.7225397446                -213.916127558
      E_Fermi               +0.484036431737                +6.58565351121

 LCAO ALGORITHM ------------- ION =    1  ELEC =    7 --------------------------------
 Memory of pvpR : 0.634368896484 MB
          total magnetism (Bohr mag/cell) = 0
       absolute magnetism (Bohr mag/cell) = 0
                                    nelec = 8

 Density error is 7.859510957e-10

       Energy                       Rydberg                            eV
   E_KohnSham                -15.7225397446                -213.916127558
     E_Harris                -15.7225397446                -213.916127558
       E_band               +0.835412600092                +11.3663715422
   E_one_elec                +4.87091916092                +66.2722550859
    E_Hartree                 +1.1219426667                +15.2648130964
         E_xc                -4.81564296372                -65.5201838402
      E_Ewald                -16.8997586085                  -229.9330119
      E_demet                            +0                            +0
      E_descf                            +0                            +0
     E_efield                            +0                            +0
        E_exx                            +0                            +0
      E_Fermi               +0.484036464132                +6.58565395197

 charge density convergence is achieved
 final etot is -213.916127558 eV

 STATE ENERGY(eV) AND OCCUPATIONS    NSPIN == 2
SPIN UP : 
 1/64 kpoint (Cartesian) = 0 0 0 (193 pws)
       1       -5.39094      0.0156250
       2        6.58565      0.0156250
       3        6.58565      0.0156250
       4        6.58565      0.0156250
       5        9.25834        0.00000
       6        9.25834        0.00000
       7        9.25834        0.00000
       8        10.1982        0.00000

 2/64 kpoint (Cartesian) = 0.250000 0.250000 -0.250000 (188 pws)
       1       -4.60359      0.0156250
       2        2.52518      0.0156250
       3        5.73823      0.0156250
       4        5.73823      0.0156250
       5        8.74658        0.00000
       6        10.3609        0.00000
       7        10.3609        0.00000
       8        13.8368        0.00000

 3/64 kpoint (Cartesian) = 0.500000 0.500000 -0.500000 (189 pws)
       1       -3.01547      0.0156250
       2      -0.627449      0.0156250
       3        5.24336      0.0156250
       4        5.24336      0.0156250
       5        8.25279        0.00000
       6        10.3493        0.00000
       7        10.3493        0.00000
       8        17.0430        0.00000

 4/64 kpoint (Cartesian) = 0.750000 0.750000 -0.750000 (191 pws)
       1       -4.60359      0.0156250
       2        2.52518      0.0156250
       3        5.73823      0.0156250
       4        5.73823      0.0156250
       5        8.74658        0.00000
       6        10.3609        0.00000
       7        10.3609        0.00000
       8        13.8368        0.00000

 5/64 kpoint (Cartesian) = 0.250000 -0.250000 0.250000 (189 pws)
       1       -4.60359      0.0156250
       2        2.52518      0.0156250
       3        5.73823      0.0156250
       4        5.73823      0.0156250
       5        8.74658        0.00000
       6        10.3609        0.00000
       7        10.3609        0.00000
       8        13.8368        0.00000

 6/64 kpoint (Cartesian) = 0.500000 0.00000 0.00000 (186 pws)
       1       -4.32308      0.0156250
       2        3.06875      0.0156250
       3        4.51800      0.0156250
       4        4.51800      0.0156250
       5        7.70984        0.00000
       6        10.5801        0.00000
       7        12.7164        0.00000
       8        12.7164        0.00000

 7/64 kpoint (Cartesian) = 0.750000 0.250000 -0.250000 (191 pws)
       1       -2.65582      0.0156250
       2       0.121686      0.0156250
       3        2.78846      0.0156250
       4        4.17361      0.0156250
       5        8.28496        0.00000
       6        11.6477        0.00000
       7        12.7239        0.00000
       8        13.1187        0.00000

 8/64 kpoint (Cartesian) = 1.00000 0.500000 -0.500000 (189 pws)
       1       -3.34825      0.0156250
       2        1.05885      0.0156250
       3        2.52698      0.0156250
       4        5.11615      0.0156250
       5        9.27794        0.00000
       6        11.6840        0.00000
       7        12.0993        0.00000
       8        13.4996        0.00000

 9/64 kpoint (Cartesian) = 0.500000 -0.500000 0.500000 (188 pws)
       1       -3.01547      0.0156250
       2      -0.627449      0.0156250
       3        5.24336      0.0156250
       4        5.24336      0.0156250
       5        8.25279        0.00000
       6        10.3493        0.00000
       7        10.3493        0.00000
       8        17.0430        0.00000

 10/64 kpoint (Cartesian) = 0.750000 -0.250000 0.250000 (191 pws)
       1       -2.65582      0.0156250
       2       0.121686      0.0156250
       3        2.78846      0.0156250
       4        4.17361      0.0156250
       5        8.28496        0.00000
       6        11.6477        0.00000
       7        12.7239        0.00000
       8        13.1187        0.00000

 11/64 kpoint (Cartesian) = 1.00000 0.00000 0.00000 (191 pws)
       1       -1.25202      0.0156250
       2       -1.25202      0.0156250
       3        3.48170      0.0156250
       4        3.48170      0.0156250
       5        7.41106        0.00000
       6        7.41106        0.00000
       7        16.9786        0.00000
       8        16.9786        0.00000

 12/64 kpoint (Cartesian) = 1.25000 0.250000 -0.250000 (192 pws)
       1       -2.65582      0.0156250
       2       0.121686      0.0156250
       3        2.78846      0.0156250
       4        4.17361      0.0156250
       5        8.28496        0.00000
       6        11.6477        0.00000
       7        12.7239        0.00000
       8        13.1187        0.00000

 13/64 kpoint (Cartesian) = 0.750000 -0.750000 0.750000 (192 pws)
       1       -4.60359      0.0156250
       2        2.52518      0.0156250
       3        5.73823      0.0156250
       4        5.73823      0.0156250
       5        8.74658        0.00000
       6        10.3609        0.00000
       7        10.3609        0.00000
       8        13.8368        0.00000

 14/64 kpoint (Cartesian) = 1.00000 -0.500000 0.500000 (189 pws)
       1       -3.34825      0.0156250
       2        1.05885      0.0156250
       3        2.52698      0.0156250
       4        5.11615      0.0156250
       5        9.27794        0.00000
       6        11.6840        0.00000
       7        12.0993        0.00000
       8        13.4996        0.00000

 15/64 kpoint (Cartesian) = 1.25000 -0.250000 0.250000 (191 pws)
       1       -2.65582      0.0156250
       2       0.121686      0.0156250
       3        2.78846      0.0156250
       4        4.17361      0.0156250
       5        8.28496        0.00000
       6        11.6477        0.00000
       7        12.7239        0.00000
       8        13.1187        0.00000

 16/64 kpoint (Cartesian) = 1.50000 0.00000 0.00000 (191 pws)
       1       -4.32308      0.0156250
       2        3.06875      0.0156250
       3        4.51800      0.0156250
       4        4.51800      0.0156250
       5        7.70984        0.00000
       6        10.5801        0.00000
       7        12.7164        0.00000
       8        12.7164        0.00000

 17/64 kpoint (Cartesian) = -0.250000 0.250000 0.250000 (185 pws)
       1       -4.60359      0.0156250
       2        2.52518      0.0156250
       3        5.73823      0.0156250
       4        5.73823      0.0156250
       5        8.74658        0.00000
       6        10.3609        0.00000
       7        10.3609        0.00000
       8        13.8368        0.00000

 18/64 kpoint (Cartesian) = 0.00000 0.500000 0.00000 (191 pws)
       1       -4.32308      0.0156250
       2        3.06875      0.0156250
       3        4.51800      0.0156250
       4        4.51800      0.0156250
       5        7.70984        0.00000
       6        10.5801        0.00000
       7        12.7164        0.00000
       8        12.7164        0.00000

 19/64 kpoint (Cartesian) = 0.250000 0.750000 -0.250000 (189 pws)
       1       -2.65582      0.0156250
       2       0.121686      0.0156250
       3        2.78846      0.0156250
       4        4.17361      0.0156250
       5        8.28496        0.00000
       6        11.6477        0.00000
       7        12.7239        0.00000
       8        13.1187        0.00000

 20/64 kpoint (Cartesian) = 0.500000 1.00000 -0.500000 (189 pws)
       1       -3.34825      0.0156250
       2        1.05885      0.0156250
       3        2.52698      0.0156250
       4        5.11615      0.0156250
       5        9.27794        0.00000
       6        11.6840        0.00000
       7        12.0993        0.00000
       8        13.4996        0.00000

 21/64 kpoint (Cartesian) = 0.00000 0.00000 0.500000 (191 pws)
       1       -4.32308      0.0156250
       2        3.06875      0.0156250
       3        4.51800      0.0156250
       4        4.51800      0.0156250
       5        7.70984        0.00000
       6        10.5801        0.00000
       7        12.7164        0.00000
       8        12.7164        0.00000

 22/64 kpoint (Cartesian) = 0.250000 0.250000 0.250000 (189 pws)
       1       -4.60359      0.0156250
       2        2.52518      0.0156250
       3        5.73823      0.0156250
       4        5.73823      0.0156250
       5        8.74658        0.00000
       6        10.3609        0.00000
       7        10.3609        0.00000
       8        13.8368        0.00000

 23/64 kpoint (Cartesian) = 0.500000 0.500000 0.00000 (189 pws)
       1       -3.34825      0.0156250
       2        1.05885      0.0156250
       3        2.52698      0.0156250
       4        5.11615      0.0156250
       5        9.27794        0.00000
       6        11.6840        0.00000
       7        12.0993        0.00000
       8        13.4996        0.00000

 24/64 kpoint (Cartesian) = 0.750000 0.750000 -0.250000 (191 pws)
       1       -2.65582      0.0156250
       2       0.121686      0.0156250
       3        2.78846      0.0156250
       4        4.17361      0.0156250
       5        8.28496        0.00000
       6        11.6477        0.00000
       7        12.7239        0.00000
       8        13.1187        0.00000

 25/64 kpoint (Cartesian) = 0.250000 -0.250000 0.750000 (190 pws)
       1       -2.65582      0.0156250
       2       0.121686      0.0156250
       3        2.78846      0.0156250
       4        4.17361      0.0156250
       5        8.28496        0.00000
       6        11.6477        0.00000
       7        12.7239        0.00000
       8        13.1187        0.00000

 26/64 kpoint (Cartesian) = 0.500000 0.00000 0.500000 (186 pws)
       1       -3.34825      0.0156250
       2        1.05885      0.0156250
       3        2.52698      0.0156250
       4        5.11615      0.0156250
       5        9.27794        0.00000
       6        11.6840        0.00000
       7        12.0993        0.00000
       8        13.4996        0.00000

 27/64 kpoint (Cartesian) = 0.750000 0.250000 0.250000 (192 pws)
       1       -2.65582      0.0156250
       2       0.121686      0.0156250
       3        2.78846      0.0156250
       4        4.17361      0.0156250
       5        8.28496        0.00000
       6        11.6477        0.00000
       7        12.7239        0.00000
       8        13.1187        0.00000

 28/64 kpoint (Cartesian) = 1.00000 0.500000 0.00000 (194 pws)
       1       -1.03980      0.0156250
       2       -1.03980      0.0156250
       3        2.39103      0.0156250
       4        2.39103      0.0156250
       5        11.3786        0.00000
       6        11.3786        0.00000
       7        11.9831        0.00000
       8        11.9831        0.00000

 29/64 kpoint (Cartesian) = 0.500000 -0.500000 1.00000 (189 pws)
       1       -3.34825      0.0156250
       2        1.05885      0.0156250
       3        2.52698      0.0156250
       4        5.11615      0.0156250
       5        9.27794        0.00000
       6        11.6840        0.00000
       7        12.0993        0.00000
       8        13.4996        0.00000

 30/64 kpoint (Cartesian) = 0.750000 -0.250000 0.750000 (188 pws)
       1       -2.65582      0.0156250
       2       0.121686      0.0156250
       3        2.78846      0.0156250
       4        4.17361      0.0156250
       5        8.28496        0.00000
       6        11.6477        0.00000
       7        12.7239        0.00000
       8        13.1187        0.00000

 31/64 kpoint (Cartesian) = 1.00000 0.00000 0.500000 (192 pws)
       1       -1.03980      0.0156250
       2       -1.03980      0.0156250
       3        2.39103      0.0156250
       4        2.39103      0.0156250
       5        11.3786        0.00000
       6        11.3786        0.00000
       7        11.9831        0.00000
       8        11.9831        0.00000

 32/64 kpoint (Cartesian) = 1.25000 0.250000 0.250000 (195 pws)
       1       -2.65582      0.0156250
       2       0.121686      0.0156250
       3        2.78846      0.0156250
       4        4.17361      0.0156250
       5        8.28496        0.00000
       6        11.6477        0.00000
       7        12.7239        0.00000
       8        13.1187        0.00000

 33/64 kpoint (Cartesian) = -0.500000 0.500000 0.500000 (187 pws)
       1       -3.01547      0.0156250
       2      -0.627449      0.0156250
       3        5.24336      0.0156250
       4        5.24336      0.0156250
       5        8.25279        0.00000
       6        10.3493        0.00000
       7        10.3493        0.00000
       8        17.0430        0.00000

 34/64 kpoint (Cartesian) = -0.250000 0.750000 0.250000 (188 pws)
       1       -2.65582      0.0156250
       2       0.121686      0.0156250
       3        2.78846      0.0156250
       4        4.17361      0.0156250
       5        8.28496        0.00000
       6        11.6477        0.00000
       7        12.7239        0.00000
       8        13.1187        0.00000

 35/64 kpoint (Cartesian) = 0.00000 1.00000 0.00000 (187 pws)
       1       -1.25202      0.0156250
       2       -1.25202      0.0156250
       3        3.48170      0.0156250
       4        3.48170      0.0156250
       5        7.41106        0.00000
       6        7.41106        0.00000
       7        16.9786        0.00000
       8        16.9786        0.00000

 36/64 kpoint (Cartesian) = 0.250000 1.25000 -0.250000 (190 pws)
       1       -2.65582      0.0156250
       2       0.121686      0.0156250
       3        2.78846      0.0156250
       4        4.17361      0.0156250
       5        8.28496        0.00000
       6        11.6477        0.00000
       7        12.7239        0.00000
       8        13.1187        0.00000

 37/64 kpoint (Cartesian) = -0.250000 0.250000 0.750000 (189 pws)
       1       -2.65582      0.0156250
       2       0.121686      0.0156250
       3        2.78846      0.0156250
       4        4.17361      0.0156250
       5        8.28496        0.00000
       6        11.6477        0.00000
       7        12.7239        0.00000
       8        13.1187        0.00000

 38/64 kpoint (Cartesian) = 0.00000 0.500000 0.500000 (184 pws)
       1       -3.34825      0.0156250
       2        1.05885      0.0156250
       3        2.52698      0.0156250
       4        5.11615      0.0156250
       5        9.27794        0.00000
       6        11.6840        0.00000
       7        12.0993        0.00000
       8        13.4996        0.00000

 39/64 kpoint (Cartesian) = 0.250000 0.750000 0.250000 (189 pws)
       1       -2.65582      0.0156250
       2       0.121686      0.0156250
       3        2.78846      0.0156250
       4        4.17361      0.0156250
       5        8.28496        0.00000
       6        11.6477        0.00000
       7        12.7239        0.00000
       8        13.1187        0.00000

 40/64 kpoint (Cartesian) = 0.500000 1.00000 0.00000 (193 pws)
       1       -1.03980      0.0156250
       2       -1.03980      0.0156250
       3        2.39103      0.0156250
       4        2.39103      0.0156250
       5        11.3786        0.00000
       6        11.3786        0.00000
       7        11.9831        0.00000
       8        11.9831        0.00000

 41/64 kpoint (Cartesian) = 0.00000 0.00000 1.00000 (188 pws)
       1       -1.25202      0.0156250
       2       -1.25202      0.0156250
       3        3.48170      0.0156250
       4        3.48170      0.0156250
       5        7.41106        0.00000
       6        7.41106        0.00000
       7        16.9786        0.00000
       8        16.9786        0.00000

 42/64 kpoint (Cartesian) = 0.250000 0.250000 0.750000 (189 pws)
       1       -2.65582      0.0156250
       2       0.121686      0.0156250
       3        2.78846      0.0156250
       4        4.17361      0.0156250
       5        8.28496        0.00000
       6        11.6477        0.00000
       7        12.7239        0.00000
       8        13.1187        0.00000

 43/64 kpoint (Cartesian) = 0.500000 0.500000 0.500000 (191 pws)
       1       -3.01547      0.0156250
       2      -0.627449      0.0156250
       3        5.24336      0.0156250
       4        5.24336      0.0156250
       5        8.25279        0.00000
       6        10.3493        0.00000
       7        10.3493        0.00000
       8        17.0430        0.00000

 44/64 kpoint (Cartesian) = 0.750000 0.750000 0.250000 (190 pws)
       1       -2.65582      0.0156250
       2       0.121686      0.0156250
       3        2.78846      0.0156250
       4        4.17361      0.0156250
       5        8.28496        0.00000
       6        11.6477        0.00000
       7        12.7239        0.00000
       8        13.1187        0.00000

 45/64 kpoint (Cartesian) = 0.250000 -0.250000 1.25000 (190 pws)
       1       -2.65582      0.0156250
       2       0.121686      0.0156250
       3        2.78846      0.0156250
       4        4.17361      0.0156250
       5        8.28496        0.00000
       6        11.6477        0.00000
       7        12.7239        0.00000
       8        13.1187        0.00000

 46/64 kpoint (Cartesian) = 0.500000 0.00000 1.00000 (194 pws)
       1       -1.03980      0.0156250
       2       -1.03980      0.0156250
       3        2.39103      0.0156250
       4        2.39103      0.0156250
       5        11.3786        0.00000
       6        11.3786        0.00000
       7        11.9831        0.00000
       8        11.9831        0.00000

 47/64 kpoint (Cartesian) = 0.750000 0.250000 0.750000 (189 pws)
       1       -2.65582      0.0156250
       2       0.121686      0.0156250
       3        2.78846      0.0156250
       4        4.17361      0.0156250
       5        8.28496        0.00000
       6        11.6477        0.00000
       7        12.7239        0.00000
       8        13.1187        0.00000

 48/64 kpoint (Cartesian) = 1.00000 0.500000 0.500000 (193 pws)
       1       -3.34825      0.0156250
       2        1.05885      0.0156250
       3        2.52698      0.0156250
       4        5.11615      0.0156250
       5        9.27794        0.00000
       6        11.6840        0.00000
       7        12.0993        0.00000
       8        13.4996        0.00000

 49/64 kpoint (Cartesian) = -0.750000 0.750000 0.750000 (192 pws)
       1       -4.60359      0.0156250
       2        2.52518      0.0156250
       3        5.73823      0.0156250
       4        5.73823      0.0156250
       5        8.74658        0.00000
       6        10.3609        0.00000
       7        10.3609        0.00000
       8        13.8368        0.00000

 50/64 kpoint (Cartesian) = -0.500000 1.00000 0.500000 (189 pws)
       1       -3.34825      0.0156250
       2        1.05885      0.0156250
       3        2.52698      0.0156250
       4        5.11615      0.0156250
       5        9.27794        0.00000
       6        11.6840        0.00000
       7        12.0993        0.00000
       8        13.4996        0.00000

 51/64 kpoint (Cartesian) = -0.250000 1.25000 0.250000 (189 pws)
       1       -2.65582      0.0156250
       2       0.121686      0.0156250
       3        2.78846      0.0156250
       4        4.17361      0.0156250
       5        8.28496        0.00000
       6        11.6477        0.00000
       7        12.7239        0.00000
       8        13.1187        0.00000

 52/64 kpoint (Cartesian) = 0.00000 1.50000 0.00000 (193 pws)
       1       -4.32308      0.0156250
       2        3.06875      0.0156250
       3        4.51800      0.0156250
       4        4.51800      0.0156250
       5        7.70984        0.00000
       6        10.5801        0.00000
       7        12.7164        0.00000
       8        12.7164        0.00000

 53/64 kpoint (Cartesian) = -0.500000 0.500000 1.00000 (187 pws)
       1       -3.34825      0.0156250
       2        1.05885      0.0156250
       3        2.52698      0.0156250
       4        5.11615      0.0156250
       5        9.27794        0.00000
       6        11.6840        0.00000
       7        12.0993        0.00000
       8        13.4996        0.00000

 54/64 kpoint (Cartesian) = -0.250000 0.750000 0.750000 (192 pws)
       1       -2.65582      0.0156250
       2       0.121686      0.0156250
       3        2.78846      0.0156250
       4        4.17361      0.0156250
       5        8.28496        0.00000
       6        11.6477        0.00000
       7        12.7239        0.00000
       8        13.1187        0.00000

 55/64 kpoint (Cartesian) = 0.00000 1.00000 0.500000 (194 pws)
       1       -1.03980      0.0156250
       2       -1.03980      0.0156250
       3        2.39103      0.0156250
       4        2.39103      0.0156250
       5        11.3786        0.00000
       6        11.3786        0.00000
       7        11.9831        0.00000
       8        11.9831        0.00000

 56/64 kpoint (Cartesian) = 0.250000 1.25000 0.250000 (193 pws)
       1       -2.65582      0.0156250
       2       0.121686      0.0156250
       3        2.78846      0.0156250
       4        4.17361      0.0156250
       5        8.28496        0.00000
       6        11.6477        0.00000
       7        12.7239        0.00000
       8        13.1187        0.00000

 57/64 kpoint (Cartesian) = -0.250000 0.250000 1.25000 (192 pws)
       1       -2.65582      0.0156250
       2       0.121686      0.0156250
       3        2.78846      0.0156250
       4        4.17361      0.0156250
       5        8.28496        0.00000
       6        11.6477        0.00000
       7        12.7239        0.00000
       8        13.1187        0.00000

 58/64 kpoint (Cartesian) = 0.00000 0.500000 1.00000 (193 pws)
       1       -1.03980      0.0156250
       2       -1.03980      0.0156250
       3        2.39103      0.0156250
       4        2.39103      0.0156250
       5        11.3786        0.00000
       6        11.3786        0.00000
       7        11.9831        0.00000
       8        11.9831        0.00000

 59/64 kpoint (Cartesian) = 0.250000 0.750000 0.750000 (192 pws)
       1       -2.65582      0.0156250
       2       0.121686      0.0156250
       3        2.78846      0.0156250
       4        4.17361      0.0156250
       5        8.28496        0.00000
       6        11.6477        0.00000
       7        12.7239        0.00000
       8        13.1187        0.00000

 60/64 kpoint (Cartesian) = 0.500000 1.00000 0.500000 (188 pws)
       1       -3.34825      0.0156250
       2        1.05885      0.0156250
       3        2.52698      0.0156250
       4        5.11615      0.0156250
       5        9.27794        0.00000
       6        11.6840        0.00000
       7        12.0993        0.00000
       8        13.4996        0.00000

 61/64 kpoint (Cartesian) = 0.00000 0.00000 1.50000 (194 pws)
       1       -4.32308      0.0156250
       2        3.06875      0.0156250
       3        4.51800      0.0156250
       4        4.51800      0.0156250
       5        7.70984        0.00000
       6        10.5801        0.00000
       7        12.7164        0.00000
       8        12.7164        0.00000

 62/64 kpoint (Cartesian) = 0.250000 0.250000 1.25000 (194 pws)
       1       -2.65582      0.0156250
       2       0.121686      0.0156250
       3        2.78846      0.0156250
       4        4.17361      0.0156250
       5        8.28496        0.00000
       6        11.6477        0.00000
       7        12.7239        0.00000
       8        13.1187        0.00000

 63/64 kpoint (Cartesian) = 0.500000 0.500000 1.00000 (190 pws)
       1       -3.34825      0.0156250
       2        1.05885      0.0156250
       3        2.52698      0.0156250
       4        5.11615      0.0156250
       5        9.27794        0.00000
       6        11.6840        0.00000
       7        12.0993        0.00000
       8        13.4996        0.00000

 64/64 kpoint (Cartesian) = 0.750000 0.750000 0.750000 (187 pws)
       1       -4.60359      0.0156250
       2        2.52518      0.0156250
       3        5.73823      0.0156250
       4        5.73823      0.0156250
       5        8.74658        0.00000
       6        10.3609        0.00000
       7        10.3609        0.00000
       8        13.8368        0.00000

SPIN DOWN : 
 1/64 kpoint (Cartesian) = 0.00000 0.00000 0.00000 (193 pws)
       1       -5.39094      0.0156250
       2        6.58565      0.0156250
       3        6.58565      0.0156250
       4        6.58565      0.0156250
       5        9.25834        0.00000
       6        9.25834        0.00000
       7        9.25834        0.00000
       8        10.1982        0.00000

 2/64 kpoint (Cartesian) = 0.250000 0.250000 -0.250000 (188 pws)
       1       -4.60359      0.0156250
       2        2.52518      0.0156250
       3        5.73823      0.0156250
       4        5.73823      0.0156250
       5        8.74658        0.00000
       6        10.3609        0.00000
       7        10.3609        0.00000
       8        13.8368        0.00000

 3/64 kpoint (Cartesian) = 0.500000 0.500000 -0.500000 (189 pws)
       1       -3.01547      0.0156250
       2      -0.627449      0.0156250
       3        5.24336      0.0156250
       4        5.24336      0.0156250
       5        8.25279        0.00000
       6        10.3493        0.00000
       7        10.3493        0.00000
       8        17.0430        0.00000

 4/64 kpoint (Cartesian) = 0.750000 0.750000 -0.750000 (191 pws)
       1       -4.60359      0.0156250
       2        2.52518      0.0156250
       3        5.73823      0.0156250
       4        5.73823      0.0156250
       5        8.74658        0.00000
       6        10.3609        0.00000
       7        10.3609        0.00000
       8        13.8368        0.00000

 5/64 kpoint (Cartesian) = 0.250000 -0.250000 0.250000 (189 pws)
       1       -4.60359      0.0156250
       2        2.52518      0.0156250
       3        5.73823      0.0156250
       4        5.73823      0.0156250
       5        8.74658        0.00000
       6        10.3609        0.00000
       7        10.3609        0.00000
       8        13.8368        0.00000

 6/64 kpoint (Cartesian) = 0.500000 0.00000 0.00000 (186 pws)
       1       -4.32308      0.0156250
       2        3.06875      0.0156250
       3        4.51800      0.0156250
       4        4.51800      0.0156250
       5        7.70984        0.00000
       6        10.5801        0.00000
       7        12.7164        0.00000
       8        12.7164        0.00000

 7/64 kpoint (Cartesian) = 0.750000 0.250000 -0.250000 (191 pws)
       1       -2.65582      0.0156250
       2       0.121686      0.0156250
       3        2.78846      0.0156250
       4        4.17361      0.0156250
       5        8.28496        0.00000
       6        11.6477        0.00000
       7        12.7239        0.00000
       8        13.1187        0.00000

 8/64 kpoint (Cartesian) = 1.00000 0.500000 -0.500000 (189 pws)
       1       -3.34825      0.0156250
       2        1.05885      0.0156250
       3        2.52698      0.0156250
       4        5.11615      0.0156250
       5        9.27794        0.00000
       6        11.6840        0.00000
       7        12.0993        0.00000
       8        13.4996        0.00000

 9/64 kpoint (Cartesian) = 0.500000 -0.500000 0.500000 (188 pws)
       1       -3.01547      0.0156250
       2      -0.627449      0.0156250
       3        5.24336      0.0156250
       4        5.24336      0.0156250
       5        8.25279        0.00000
       6        10.3493        0.00000
       7        10.3493        0.00000
       8        17.0430        0.00000

 10/64 kpoint (Cartesian) = 0.750000 -0.250000 0.250000 (191 pws)
       1       -2.65582      0.0156250
       2       0.121686      0.0156250
       3        2.78846      0.0156250
       4        4.17361      0.0156250
       5        8.28496        0.00000
       6        11.6477        0.00000
       7        12.7239        0.00000
       8        13.1187        0.00000

 11/64 kpoint (Cartesian) = 1.00000 0.00000 0.00000 (191 pws)
       1       -1.25202      0.0156250
       2       -1.25202      0.0156250
       3        3.48170      0.0156250
       4        3.48170      0.0156250
       5        7.41106        0.00000
       6        7.41106        0.00000
       7        16.9786        0.00000
       8        16.9786        0.00000

 12/64 kpoint (Cartesian) = 1.25000 0.250000 -0.250000 (192 pws)
       1       -2.65582      0.0156250
       2       0.121686      0.0156250
       3        2.78846      0.0156250
       4        4.17361      0.0156250
       5        8.28496        0.00000
       6        11.6477        0.00000
       7        12.7239        0.00000
       8        13.1187        0.00000

 13/64 kpoint (Cartesian) = 0.750000 -0.750000 0.750000 (192 pws)
       1       -4.60359      0.0156250
       2        2.52518      0.0156250
       3        5.73823      0.0156250
       4        5.73823      0.0156250
       5        8.74658        0.00000
       6        10.3609        0.00000
       7        10.3609        0.00000
       8        13.8368        0.00000

 14/64 kpoint (Cartesian) = 1.00000 -0.500000 0.500000 (189 pws)
       1       -3.34825      0.0156250
       2        1.05885      0.0156250
       3        2.52698      0.0156250
       4        5.11615      0.0156250
       5        9.27794        0.00000
       6        11.6840        0.00000
       7        12.0993        0.00000
       8        13.4996        0.00000

 15/64 kpoint (Cartesian) = 1.25000 -0.250000 0.250000 (191 pws)
       1       -2.65582      0.0156250
       2       0.121686      0.0156250
       3        2.78846      0.0156250
       4        4.17361      0.0156250
       5        8.28496        0.00000
       6        11.6477        0.00000
       7        12.7239        0.00000
       8        13.1187        0.00000

 16/64 kpoint (Cartesian) = 1.50000 0.00000 0.00000 (191 pws)
       1       -4.32308      0.0156250
       2        3.06875      0.0156250
       3        4.51800      0.0156250
       4        4.51800      0.0156250
       5        7.70984        0.00000
       6        10.5801        0.00000
       7        12.7164        0.00000
       8        12.7164        0.00000

 17/64 kpoint (Cartesian) = -0.250000 0.250000 0.250000 (185 pws)
       1       -4.60359      0.0156250
       2        2.52518      0.0156250
       3        5.73823      0.0156250
       4        5.73823      0.0156250
       5        8.74658        0.00000
       6        10.3609        0.00000
       7        10.3609        0.00000
       8        13.8368        0.00000

 18/64 kpoint (Cartesian) = 0.00000 0.500000 0.00000 (191 pws)
       1       -4.32308      0.0156250
       2        3.06875      0.0156250
       3        4.51800      0.0156250
       4        4.51800      0.0156250
       5        7.70984        0.00000
       6        10.5801        0.00000
       7        12.7164        0.00000
       8        12.7164        0.00000

 19/64 kpoint (Cartesian) = 0.250000 0.750000 -0.250000 (189 pws)
       1       -2.65582      0.0156250
       2       0.121686      0.0156250
       3        2.78846      0.0156250
       4        4.17361      0.0156250
       5        8.28496        0.00000
       6        11.6477        0.00000
       7        12.7239        0.00000
       8        13.1187        0.00000

 20/64 kpoint (Cartesian) = 0.500000 1.00000 -0.500000 (189 pws)
       1       -3.34825      0.0156250
       2        1.05885      0.0156250
       3        2.52698      0.0156250
       4        5.11615      0.0156250
       5        9.27794        0.00000
       6        11.6840        0.00000
       7        12.0993        0.00000
       8        13.4996        0.00000

 21/64 kpoint (Cartesian) = 0.00000 0.00000 0.500000 (191 pws)
       1       -4.32308      0.0156250
       2        3.06875      0.0156250
       3        4.51800      0.0156250
       4        4.51800      0.0156250
       5        7.70984        0.00000
       6        10.5801        0.00000
       7        12.7164        0.00000
       8        12.7164        0.00000

 22/64 kpoint (Cartesian) = 0.250000 0.250000 0.250000 (189 pws)
       1       -4.60359      0.0156250
       2        2.52518      0.0156250
       3        5.73823      0.0156250
       4        5.73823      0.0156250
       5        8.74658        0.00000
       6        10.3609        0.00000
       7        10.3609        0.00000
[...]
       4        4.17361      0.0156250
       5        8.28496        0.00000
       6        11.6477        0.00000
       7        12.7239        0.00000
       8        13.1187        0.00000

 26/64 kpoint (Cartesian) = 0.500000 0.00000 0.500000 (186 pws)
       1       -3.34825      0.0156250
       2        1.05885      0.0156250
       3        2.52698      0.0156250
       4        5.11615      0.0156250
       5        9.27794        0.00000
       6        11.6840        0.00000
       7        12.0993        0.00000
       8        13.4996        0.00000

 27/64 kpoint (Cartesian) = 0.750000 0.250000 0.250000 (192 pws)
       1       -2.65582      0.0156250
       2       0.121686      0.0156250
       3        2.78846      0.0156250
       4        4.17361      0.0156250
       5        8.28496        0.00000
       6        11.6477        0.00000
       7        12.7239        0.00000
       8        13.1187        0.00000

 28/64 kpoint (Cartesian) = 1.00000 0.500000 0.00000 (194 pws)
       1       -1.03980      0.0156250
       2       -1.03980      0.0156250
       3        2.39103      0.0156250
       4        2.39103      0.0156250
       5        11.3786        0.00000
       6        11.3786        0.00000
       7        11.9831        0.00000
       8        11.9831        0.00000

 29/64 kpoint (Cartesian) = 0.500000 -0.500000 1.00000 (189 pws)
       1       -3.34825      0.0156250
       2        1.05885      0.0156250
       3        2.52698      0.0156250
       4        5.11615      0.0156250
       5        9.27794        0.00000
       6        11.6840        0.00000
       7        12.0993        0.00000
       8        13.4996        0.00000

 30/64 kpoint (Cartesian) = 0.750000 -0.250000 0.750000 (188 pws)
       1       -2.65582      0.0156250
       2       0.121686      0.0156250
       3        2.78846      0.0156250
       4        4.17361      0.0156250
       5        8.28496        0.00000
       6        11.6477        0.00000
       7        12.7239        0.00000
       8        13.1187        0.00000

 31/64 kpoint (Cartesian) = 1.00000 0.00000 0.500000 (192 pws)
       1       -1.03980      0.0156250
       2       -1.03980      0.0156250
       3        2.39103      0.0156250
       4        2.39103      0.0156250
       5        11.3786        0.00000
       6        11.3786        0.00000
       7        11.9831        0.00000
       8        11.9831        0.00000

 32/64 kpoint (Cartesian) = 1.25000 0.250000 0.250000 (195 pws)
       1       -2.65582      0.0156250
       2       0.121686      0.0156250
       3        2.78846      0.0156250
       4        4.17361      0.0156250
       5        8.28496        0.00000
       6        11.6477        0.00000
       7        12.7239        0.00000
       8        13.1187        0.00000

 33/64 kpoint (Cartesian) = -0.500000 0.500000 0.500000 (187 pws)
       1       -3.01547      0.0156250
       2      -0.627449      0.0156250
       3        5.24336      0.0156250
       4        5.24336      0.0156250
       5        8.25279        0.00000
       6        10.3493        0.00000
       7        10.3493        0.00000
       8        17.0430        0.00000

 34/64 kpoint (Cartesian) = -0.250000 0.750000 0.250000 (188 pws)
       1       -2.65582      0.0156250
       2       0.121686      0.0156250
       3        2.78846      0.0156250
       4        4.17361      0.0156250
       5        8.28496        0.00000
       6        11.6477        0.00000
       7        12.7239        0.00000
       8        13.1187        0.00000

 35/64 kpoint (Cartesian) = 0.00000 1.00000 0.00000 (187 pws)
       1       -1.25202      0.0156250
       2       -1.25202      0.0156250
       3        3.48170      0.0156250
       4        3.48170      0.0156250
       5        7.41106        0.00000
       6        7.41106        0.00000
       7        16.9786        0.00000
       8        16.9786        0.00000

 36/64 kpoint (Cartesian) = 0.250000 1.25000 -0.250000 (190 pws)
       1       -2.65582      0.0156250
       2       0.121686      0.0156250
       3        2.78846      0.0156250
       4        4.17361      0.0156250
       5        8.28496        0.00000
       6        11.6477        0.00000
       7        12.7239        0.00000
       8        13.1187        0.00000

 37/64 kpoint (Cartesian) = -0.250000 0.250000 0.750000 (189 pws)
       1       -2.65582      0.0156250
       2       0.121686      0.0156250
       3        2.78846      0.0156250
       4        4.17361      0.0156250
       5        8.28496        0.00000
       6        11.6477        0.00000
       7        12.7239        0.00000
       8        13.1187        0.00000

 38/64 kpoint (Cartesian) = 0.00000 0.500000 0.500000 (184 pws)
       1       -3.34825      0.0156250
       2        1.05885      0.0156250
       3        2.52698      0.0156250
       4        5.11615      0.0156250
       5        9.27794        0.00000
       6        11.6840        0.00000
       7        12.0993        0.00000
       8        13.4996        0.00000

 39/64 kpoint (Cartesian) = 0.250000 0.750000 0.250000 (189 pws)
       1       -2.65582      0.0156250
       2       0.121686      0.0156250
       3        2.78846      0.0156250
       4        4.17361      0.0156250
       5        8.28496        0.00000
       6        11.6477        0.00000
       7        12.7239        0.00000
       8        13.1187        0.00000

 40/64 kpoint (Cartesian) = 0.500000 1.00000 0.00000 (193 pws)
       1       -1.03980      0.0156250
       2       -1.03980      0.0156250
       3        2.39103      0.0156250
       4        2.39103      0.0156250
       5        11.3786        0.00000
       6        11.3786        0.00000
       7        11.9831        0.00000
       8        11.9831        0.00000

 41/64 kpoint (Cartesian) = 0.00000 0.00000 1.00000 (188 pws)
       1       -1.25202      0.0156250
       2       -1.25202      0.0156250
       3        3.48170      0.0156250
       4        3.48170      0.0156250
       5        7.41106        0.00000
       6        7.41106        0.00000
       7        16.9786        0.00000
       8        16.9786        0.00000

 42/64 kpoint (Cartesian) = 0.250000 0.250000 0.750000 (189 pws)
       1       -2.65582      0.0156250
       2       0.121686      0.0156250
       3        2.78846      0.0156250
       4        4.17361      0.0156250
       5        8.28496        0.00000
       6        11.6477        0.00000
       7        12.7239        0.00000
       8        13.1187        0.00000

 43/64 kpoint (Cartesian) = 0.500000 0.500000 0.500000 (191 pws)
       1       -3.01547      0.0156250
       2      -0.627449      0.0156250
       3        5.24336      0.0156250
       4        5.24336      0.0156250
       5        8.25279        0.00000
       6        10.3493        0.00000
       7        10.3493        0.00000
       8        17.0430        0.00000

 44/64 kpoint (Cartesian) = 0.750000 0.750000 0.250000 (190 pws)
       1       -2.65582      0.0156250
       2       0.121686      0.0156250
       3        2.78846      0.0156250
       4        4.17361      0.0156250
       5        8.28496        0.00000
       6        11.6477        0.00000
       7        12.7239        0.00000
       8        13.1187        0.00000

 45/64 kpoint (Cartesian) = 0.250000 -0.250000 1.25000 (190 pws)
       1       -2.65582      0.0156250
       2       0.121686      0.0156250
       3        2.78846      0.0156250
       4        4.17361      0.0156250
       5        8.28496        0.00000
       6        11.6477        0.00000
       7        12.7239        0.00000
       8        13.1187        0.00000

 46/64 kpoint (Cartesian) = 0.500000 0.00000 1.00000 (194 pws)
       1       -1.03980      0.0156250
       2       -1.03980      0.0156250
       3        2.39103      0.0156250
       4        2.39103      0.0156250
       5        11.3786        0.00000
       6        11.3786        0.00000
       7        11.9831        0.00000
       8        11.9831        0.00000

 47/64 kpoint (Cartesian) = 0.750000 0.250000 0.750000 (189 pws)
       1       -2.65582      0.0156250
       2       0.121686      0.0156250
       3        2.78846      0.0156250
       4        4.17361      0.0156250
       5        8.28496        0.00000
       6        11.6477        0.00000
       7        12.7239        0.00000
       8        13.1187        0.00000

 48/64 kpoint (Cartesian) = 1.00000 0.500000 0.500000 (193 pws)
       1       -3.34825      0.0156250
       2        1.05885      0.0156250
       3        2.52698      0.0156250
       4        5.11615      0.0156250
       5        9.27794        0.00000
       6        11.6840        0.00000
       7        12.0993        0.00000
       8        13.4996        0.00000

 49/64 kpoint (Cartesian) = -0.750000 0.750000 0.750000 (192 pws)
       1       -4.60359      0.0156250
       2        2.52518      0.0156250
       3        5.73823      0.0156250
       4        5.73823      0.0156250
       5        8.74658        0.00000
       6        10.3609        0.00000
       7        10.3609        0.00000
       8        13.8368        0.00000

 50/64 kpoint (Cartesian) = -0.500000 1.00000 0.500000 (189 pws)
       1       -3.34825      0.0156250
       2        1.05885      0.0156250
       3        2.52698      0.0156250
       4        5.11615      0.0156250
       5        9.27794        0.00000
       6        11.6840        0.00000
       7        12.0993        0.00000
       8        13.4996        0.00000

 51/64 kpoint (Cartesian) = -0.250000 1.25000 0.250000 (189 pws)
       1       -2.65582      0.0156250
       2       0.121686      0.0156250
       3        2.78846      0.0156250
       4        4.17361      0.0156250
       5        8.28496        0.00000
       6        11.6477        0.00000
       7        12.7239        0.00000
       8        13.1187        0.00000

 52/64 kpoint (Cartesian) = 0.00000 1.50000 0.00000 (193 pws)
       1       -4.32308      0.0156250
       2        3.06875      0.0156250
       3        4.51800      0.0156250
       4        4.51800      0.0156250
       5        7.70984        0.00000
       6        10.5801        0.00000
       7        12.7164        0.00000
       8        12.7164        0.00000

 53/64 kpoint (Cartesian) = -0.500000 0.500000 1.00000 (187 pws)
       1       -3.34825      0.0156250
       2        1.05885      0.0156250
       3        2.52698      0.0156250
       4        5.11615      0.0156250
       5        9.27794        0.00000
       6        11.6840        0.00000
       7        12.0993        0.00000
       8        13.4996        0.00000

 54/64 kpoint (Cartesian) = -0.250000 0.750000 0.750000 (192 pws)
       1       -2.65582      0.0156250
       2       0.121686      0.0156250
       3        2.78846      0.0156250
       4        4.17361      0.0156250
       5        8.28496        0.00000
       6        11.6477        0.00000
       7        12.7239        0.00000
       8        13.1187        0.00000

 55/64 kpoint (Cartesian) = 0.00000 1.00000 0.500000 (194 pws)
       1       -1.03980      0.0156250
       2       -1.03980      0.0156250
       3        2.39103      0.0156250
       4        2.39103      0.0156250
       5        11.3786        0.00000
       6        11.3786        0.00000
       7        11.9831        0.00000
       8        11.9831        0.00000

 56/64 kpoint (Cartesian) = 0.250000 1.25000 0.250000 (193 pws)
       1       -2.65582      0.0156250
       2       0.121686      0.0156250
       3        2.78846      0.0156250
       4        4.17361      0.0156250
       5        8.28496        0.00000
       6        11.6477        0.00000
       7        12.7239        0.00000
       8        13.1187        0.00000

 57/64 kpoint (Cartesian) = -0.250000 0.250000 1.25000 (192 pws)
       1       -2.65582      0.0156250
       2       0.121686      0.0156250
       3        2.78846      0.0156250
       4        4.17361      0.0156250
       5        8.28496        0.00000
       6        11.6477        0.00000
       7        12.7239        0.00000
       8        13.1187        0.00000

 58/64 kpoint (Cartesian) = 0.00000 0.500000 1.00000 (193 pws)
       1       -1.03980      0.0156250
       2       -1.03980      0.0156250
       3        2.39103      0.0156250
       4        2.39103      0.0156250
       5        11.3786        0.00000
       6        11.3786        0.00000
       7        11.9831        0.00000
       8        11.9831        0.00000

 59/64 kpoint (Cartesian) = 0.250000 0.750000 0.750000 (192 pws)
       1       -2.65582      0.0156250
       2       0.121686      0.0156250
       3        2.78846      0.0156250
       4        4.17361      0.0156250
       5        8.28496        0.00000
       6        11.6477        0.00000
       7        12.7239        0.00000
       8        13.1187        0.00000

 60/64 kpoint (Cartesian) = 0.500000 1.00000 0.500000 (188 pws)
       1       -3.34825      0.0156250
       2        1.05885      0.0156250
       3        2.52698      0.0156250
       4        5.11615      0.0156250
       5        9.27794        0.00000
       6        11.6840        0.00000
       7        12.0993        0.00000
       8        13.4996        0.00000

 61/64 kpoint (Cartesian) = 0.00000 0.00000 1.50000 (194 pws)
       1       -4.32308      0.0156250
       2        3.06875      0.0156250
       3        4.51800      0.0156250
       4        4.51800      0.0156250
       5        7.70984        0.00000
       6        10.5801        0.00000
       7        12.7164        0.00000
       8        12.7164        0.00000

 62/64 kpoint (Cartesian) = 0.250000 0.250000 1.25000 (194 pws)
       1       -2.65582      0.0156250
       2       0.121686      0.0156250
       3        2.78846      0.0156250
       4        4.17361      0.0156250
       5        8.28496        0.00000
       6        11.6477        0.00000
       7        12.7239        0.00000
       8        13.1187        0.00000

 63/64 kpoint (Cartesian) = 0.500000 0.500000 1.00000 (190 pws)
       1       -3.34825      0.0156250
       2        1.05885      0.0156250
       3        2.52698      0.0156250
       4        5.11615      0.0156250
       5        9.27794        0.00000
       6        11.6840        0.00000
       7        12.0993        0.00000
       8        13.4996        0.00000

 64/64 kpoint (Cartesian) = 0.750000 0.750000 0.750000 (187 pws)
       1       -4.60359      0.0156250
       2        2.52518      0.0156250
       3        5.73823      0.0156250
       4        5.73823      0.0156250
       5        8.74658        0.00000
       6        10.3609        0.00000
       7        10.3609        0.00000
       8        13.8368        0.00000

 EFERMI = 6.585653951973835 eV
 OUT.ABACUS/ final etot is -213.9161275582975 eV
 LNNR.nnrg in cal_force_k = 41574
 LNNR.nnrg in cal_force_k = 41574
 correction force for each atom along direction 1 is -2.77376e-15
 correction force for each atom along direction 2 is 5.61140e-15
 correction force for each atom along direction 3 is 3.45657e-15

 ><><><><><><><><><><><><><><><><><><><><><><

    TOTAL-FORCE (eV/Angstrom)

 ><><><><><><><><><><><><><><><><><><><><><><

     atom              x              y              z
      Si1              0              0              0
      Si2              0              0              0

 Ion relaxation is converged!

 Energy difference (Ry) = 0.0000000

 Largest gradient is (eV/A) = 6.0143047e-14
 end of geometry optimization
                                    istep = 1
                         update iteration = 1

 CARTESIAN COORDINATES ( UNIT = 10.200000 Bohr ).
         atom                   x                   y                   z                 mag                  vx                  vy                  vz
     tauc_Si1       0.00000000000       0.00000000000       0.00000000000       0.00000000000       0.00000000000       0.00000000000       0.00000000000
     tauc_Si2      0.250000000000      0.250000000000      0.250000000000       0.00000000000       0.00000000000       0.00000000000       0.00000000000



 --------------------------------------------
 !FINAL_ETOT_IS -213.9161275582975 eV
 --------------------------------------------






  |CLASS_NAME---------|NAME---------------|TIME(Sec)-----|CALLS----|AVG------|PER%-------
                                      total         13.836        11       1.3   1.0e+02%
               Run_lcao           lcao_line         13.823         1       14.    1.e+02%
            ORB_control      set_orb_tables        0.55436         1      0.55       4.0%
         ORB_gen_tables          gen_tables        0.55435         1      0.55       4.0%
          ORB_table_phi          init_Table        0.34325         1      0.34       2.5%
          ORB_table_phi      cal_ST_Phi12_R        0.33890        70    0.0048       2.4%
              LOOP_ions            opt_ions         13.165         1       13.       95.%
              LOOP_elec     solve_elec_stru         10.463         1       10.       76.%
        LCAO_gen_fixedHbuild_Nonlocal_mu_new        0.15435         2     0.077       1.1%
              LOOP_elec              solver         10.364         1       10.       75.%
               ELEC_scf                 scf         10.364         1       10.       75.%
          ELEC_cbands_k           cal_bands         7.6872         7       1.1       56.%
                 Gint_k              vlocal         4.0619        14      0.29       29.%
             Efficience              each_k         3.5828       896    0.0040       26.%
             Efficience                 H_k         1.7747       896    0.0020       13.%
            LCAO_Hamilt        calculate_Hk         1.7737       896    0.0020       13.%
                 Gint_k        folding_vl_k        0.22661       896   0.00025       1.6%
               LCAO_nnr      folding_fixedH         1.5446       896    0.0017       11.%
             Efficience             diago_k         1.8071       896    0.0020       13.%
      Diago_LCAO_Matrix          elpa_solve         1.7551       896    0.0020       13.%
      Local_Orbital_Cha           sum_bands         2.2414         7      0.32       16.%
            LCAO_Charge            cal_dk_k        0.35313         7     0.050       2.6%
                 Gint_k           cal_rho_k         1.7480         7      0.25       13.%
              LOOP_ions        force_stress         2.6981         1       2.7       20.%
      Force_Stress_LCAO      getForceStress         2.6968         1       2.7       19.%
           Force_LCAO_k            ftable_k         2.6933         1       2.7       19.%
           Force_LCAO_k          allocate_k        0.13208         1      0.13      0.95%
           Force_LCAO_k      cal_fvl_dphi_k         2.1832         1       2.2       16.%
                 Gint_k     svl_k_RealSpace         2.1808         2       1.1       16.%
                 Gint_k   evaluate_vl_force         2.0494      1944    0.0011       15.%
           Force_LCAO_kcal_fvnl_dbeta_k_new        0.31701         1      0.32       2.3%
 ----------------------------------------------------------------------------------------

 CLASS_NAME---------|NAME---------------|MEMORY(MB)--------
                                         275.8
        ORB_table_phi               Jl(x)          97.80
        init_meshball        meshball_pos          1.337
        Grid_Meshcell        index2normal          1.253
        Grid_Meshcell         index2ucell          1.253
        ORB_table_phi         Table_SR&TR          1.225
 ----------------------------------------------------------

 Start  Time  : Wed Jul  6 15:44:39 2022
 Finish Time  : Wed Jul  6 15:44:52 2022
 Total  Time  : 0 h 0 mins 13 secs 
