                                                                                     
                             WELCOME TO ABACUS                                       
                                                                                     
               'Atomic-orbital Based Ab-initio Computation at UStc'                  
                                                                                     
                     Website: http://abacus.ustc.edu.cn/                             
                                                                                     
    Version: Parallel, in development
    Processor Number is 8
    Start Time is Tue Jul  5 15:20:21 2022
                                                                                     
 ------------------------------------------------------------------------------------

 READING GENERAL INFORMATION
                           global_out_dir = OUT.ABACUS/
                           global_in_card = INPUT
                               pseudo_dir = 
                              orbital_dir = 
                              pseudo_type = auto
                                    DRANK = 1
                                    DSIZE = 8
                                   DCOLOR = 1
                                    GRANK = 1
                                    GSIZE = 1




 >>>>>>>>>>>>>>>>>>>>>>>>>>>>>>>>>>>>>>>>>>>>>>>>>>>>>>>>>>>>>>>>>>>>>>
 |                                                                    |
 | Reading atom information in unitcell:                              |
 | From the input file and the structure file we know the number of   |
 | different elments in this unitcell, then we list the detail        |
 | information for each element, especially the zeta and polar atomic |
 | orbital number for each element. The total atom number is counted. |
 | We calculate the nearest atom distance for each atom and show the  |
 | Cartesian and Direct coordinates for each atom. We list the file   |
 | address for atomic orbitals. The volume and the lattice vectors    |
 | in real and reciprocal space is also shown.                        |
 |                                                                    |
 <<<<<<<<<<<<<<<<<<<<<<<<<<<<<<<<<<<<<<<<<<<<<<<<<<<<<<<<<<<<<<<<<<<<<<




 READING UNITCELL INFORMATION
                                    ntype = 1
                 atom label for species 1 = Si
                  lattice constant (Bohr) = 15
              lattice constant (Angstrom) = 7.93766

 READING ATOM TYPE 1
                               atom label = Si
                      L=0, number of zeta = 2
                      L=1, number of zeta = 2
                      L=2, number of zeta = 1
             number of atom for this type = 2
                      start magnetization = FALSE
                      start magnetization = FALSE

                        TOTAL ATOM NUMBER = 2

 CARTESIAN COORDINATES ( UNIT = 15 Bohr ).
         atom                   x                   y                   z                 mag                  vx                  vy                  vz
     tauc_Si1                   0                   0                   0                   0                   0                   0                   0
     tauc_Si2      0.280000000001                   0                   0                   0                   0                   0                   0


 READING ORBITAL FILE NAMES FOR LCAO
 orbital file: ./Si_lda_8.0au_50Ry_2s2p1d

                          Volume (Bohr^3) = 3375
                             Volume (A^3) = 500.122803248

 Lattice vectors: (Cartesian coordinate: in unit of a_0)
                   +1                  +0                  +0
                   +0                  +1                  +0
                   +0                  +0                  +1
 Reciprocal vectors: (Cartesian coordinate: in unit of 2 pi/a_0)
                   +1                  +0                  +0
                   +0                  +1                  +0
                   +0                  +0                  +1




 >>>>>>>>>>>>>>>>>>>>>>>>>>>>>>>>>>>>>>>>>>>>>>>>>>>>>>>>>>>>>>>>>>>>>>
 |                                                                    |
 | Reading pseudopotentials files:                                    |
 | The pseudopotential file is in UPF format. The 'NC' indicates that |
 | the type of pseudopotential is 'norm conserving'. Functional of    |
 | exchange and correlation is decided by 4 given parameters in UPF   |
 | file.  We also read in the 'core correction' if there exists.      |
 | Also we can read the valence electrons number and the maximal      |
 | angular momentum used in this pseudopotential. We also read in the |
 | trail wave function, trail atomic density and local-pseudopotential|
 | on logrithmic grid. The non-local pseudopotential projector is also|
 | read in if there is any.                                           |
 |                                                                    |
 <<<<<<<<<<<<<<<<<<<<<<<<<<<<<<<<<<<<<<<<<<<<<<<<<<<<<<<<<<<<<<<<<<<<<<




                PAO radial cut off (Bohr) = 15

 Read in pseudopotential file is Si.pz-vbc.UPF
                     pseudopotential type = NC
          exchange-correlation functional = PZ
                 nonlocal core correction = 0
                        valence electrons = 4
                                     lmax = 1
                           number of zeta = 2
                     number of projectors = 2
                           L of projector = 0
                           L of projector = 1
     initial pseudo atomic orbital number = 8
                                   NLOCAL = 26




 >>>>>>>>>>>>>>>>>>>>>>>>>>>>>>>>>>>>>>>>>>>>>>>>>>>>>>>>>>>>>>>>>>>>>>
 |                                                                    |
 | Setup plane waves of charge/potential:                             |
 | Use the energy cutoff and the lattice vectors to generate the      |
 | dimensions of FFT grid. The number of FFT grid on each processor   |
 | is 'nrxx'. The number of plane wave basis in reciprocal space is   |
 | different for charege/potential and wave functions. We also set    |
 | the 'sticks' for the parallel of FFT. The number of plane waves    |
 | is 'npw' in each processor.                                        |
 <<<<<<<<<<<<<<<<<<<<<<<<<<<<<<<<<<<<<<<<<<<<<<<<<<<<<<<<<<<<<<<<<<<<<<





 SETUP THE PLANE WAVE BASIS
 energy cutoff for charge/potential (unit:Ry) = 200
          [fft grid for charge/potential] = 72, 72, 72
                      [fft grid division] = 2, 2, 2
      [big fft grid for charge/potential] = 36, 36, 36
                                     nbxx = 6480
                                     nrxx = 51840

 SETUP PLANE WAVES FOR CHARGE/POTENTIAL
                    number of plane waves = 161235
                         number of sticks = 3577

 PARALLEL PW FOR CHARGE/POTENTIAL
     PROC   COLUMNS(POT)             PW
        1            447          20157
        2            448          20156
        3            447          20153
        4            447          20153
        5            447          20153
        6            447          20153
        7            447          20155
        8            447          20155
 --------------- sum -------------------
        8           3577         161235
                            number of |g| = 928
                                  max |g| = 1139
                                  min |g| = 1

 SETUP THE ELECTRONS NUMBER
            electron number of element Si = 4
      total electron number of element Si = 8
                           occupied bands = 4
                                   NLOCAL = 26
                                   NBANDS = 8
                                   NBANDS = 8
 DONE : SETUP UNITCELL Time : 0.0429511070251 (SEC)





 >>>>>>>>>>>>>>>>>>>>>>>>>>>>>>>>>>>>>>>>>>>>>>>>>>>>>>>>>>>>>>>>>>>>>>
 |                                                                    |
 | Setup K-points                                                     |
 | We setup the k-points according to input parameters.               |
 | The reduced k-points are set according to symmetry operations.     |
 | We treat the spin as another set of k-points.                      |
 |                                                                    |
 <<<<<<<<<<<<<<<<<<<<<<<<<<<<<<<<<<<<<<<<<<<<<<<<<<<<<<<<<<<<<<<<<<<<<<





 SETUP K-POINTS
                                    nspin = 1
                   Input type of k points = Monkhorst-Pack(Gamma)
is_mp : 1
                                   nkstot = 1
                               nkstot_ibz = 1
      IBZ             DirectX             DirectY             DirectZ              Weight    ibz2bz
        1                   0                   0                   0                   1         0
                               nkstot now = 1

  KPOINTS            DIRECT_X            DIRECT_Y            DIRECT_Z              WEIGHT
        1                   0                   0                   0                   1

           k-point number in this process = 1
       minimum distributed K point number = 1

  KPOINTS         CARTESIAN_X         CARTESIAN_Y         CARTESIAN_Z              WEIGHT
        1                   0                   0                   0                   2

  KPOINTS            DIRECT_X            DIRECT_Y            DIRECT_Z              WEIGHT
        1                   0                   0                   0                   2
 DONE : INIT K-POINTS Time : 0.0623621940613 (SEC)





 >>>>>>>>>>>>>>>>>>>>>>>>>>>>>>>>>>>>>>>>>>>>>>>>>>>>>>>>>>>>>>>>>>>>>>
 |                                                                    |
 | Setup plane waves of wave functions:                               |
 | Use the energy cutoff and the lattice vectors to generate the      |
 | dimensions of FFT grid. The number of FFT grid on each processor   |
 | is 'nrxx'. The number of plane wave basis in reciprocal space is   |
 | different for charege/potential and wave functions. We also set    |
 | the 'sticks' for the parallel of FFT. The number of plane wave of  |
 | each k-point is 'npwk[ik]' in each processor                       |
 <<<<<<<<<<<<<<<<<<<<<<<<<<<<<<<<<<<<<<<<<<<<<<<<<<<<<<<<<<<<<<<<<<<<<<





 SETUP PLANE WAVES FOR WAVE FUNCTIONS
     energy cutoff for wavefunc (unit:Ry) = 50
            [fft grid for wave functions] = 72, 72, 72
                    number of plane waves = 20005
                         number of sticks = 885

 PARALLEL PW FOR WAVE FUNCTIONS
     PROC   COLUMNS(POT)             PW
        1            110           2500
        2            110           2500
        3            110           2500
        4            111           2501
        5            111           2501
        6            111           2501
        7            111           2501
        8            111           2501
 --------------- sum -------------------
        8            885          20005
 DONE : INIT PLANEWAVE Time : 0.0766091346741 (SEC)

 DONE : INIT CHARGE Time : 0.0801022052765 (SEC)

                                 init_chg = atomic
 DONE : INIT POTENTIAL Time : 0.110537 (SEC)





 >>>>>>>>>>>>>>>>>>>>>>>>>>>>>>>>>>>>>>>>>>>>>>>>>>>>>>>>>>>>>>>>>>>>>>
 |                                                                    |
 | Setup numerical orbitals:                                          |
 | This part setup: numerical atomic orbitals, non-local projectors   |
 | and neutral potential (1D). The atomic orbitals information        |
 | including the radius, angular momentum and zeta number.            |
 | The neutral potential is the sum of local part of pseudopotential  |
 | and potential given by atomic charge, they will cancel out beyond  |
 | a certain radius cutoff, because the Z/r character.                |
 |                                                                    |
 <<<<<<<<<<<<<<<<<<<<<<<<<<<<<<<<<<<<<<<<<<<<<<<<<<<<<<<<<<<<<<<<<<<<<<





 SETUP ONE DIMENSIONAL ORBITALS/POTENTIAL
                        delta k  (1/Bohr) = 0.01
                        delta r    (Bohr) = 0.01
                        dr_uniform (Bohr) = 0.001
                        rmax       (Bohr) = 30
                                    kmesh = 711
      ORBITAL  L  N      nr      dr    RCUT  CHECK_UNIT    NEW_UNIT
            1  0  0     801    0.01       8           1           1
            2  0  1     801    0.01       8           1           1
            3  1  0     801    0.01       8           1           1
            4  1  1     801    0.01       8           1           1
            5  2  0     801    0.01       8           1           1
 SET NONLOCAL PSEUDOPOTENTIAL PROJECTORS
 max number of nonlocal projetors among all species is 2

 SETUP THE TWO-CENTER INTEGRATION TABLES

 SETUP THE DIVISION OF H/S MATRIX
 divide the H&S matrix using 2D block algorithms.
                                     nb2d = 1
                  trace_loc_row dimension = 26
                  trace_loc_col dimension = 26
                                     nloc = 91

 -------------------------------------------
 STEP OF ION RELAXATION : 1
 -------------------------------------------




 >>>>>>>>>>>>>>>>>>>>>>>>>>>>>>>>>>>>>>>>>>>>>>>>>>>>>>>>>>>>>>>>>>>>>>
 |                                                                    |
 | Search adjacent atoms:                                             |
 | Set the adjacent atoms for each atom and set the periodic boundary |
 | condition for the atoms on real space FFT grid. For k-dependent    |
 | algorithm, we also need to set the sparse H and S matrix element   |
 | for each atom.                                                     |
 |                                                                    |
 <<<<<<<<<<<<<<<<<<<<<<<<<<<<<<<<<<<<<<<<<<<<<<<<<<<<<<<<<<<<<<<<<<<<<<





 SETUP SEARCHING RADIUS FOR PROGRAM TO SEARCH ADJACENT ATOMS
                  longest orb rcut (Bohr) = 8
   longest nonlocal projector rcut (Bohr) = 5.01
              searching radius is (Bohr)) = 16
         searching radius unit is (Bohr)) = 15

 SETUP EXTENDED REAL SPACE GRID FOR GRID INTEGRATION
                        [real space grid] = 72, 72, 72
               [big cell numbers in grid] = 36, 36, 36
           [meshcell numbers in big cell] = 2, 2, 2
                      [extended fft grid] = 20, 20, 20
              [dimension of extened grid] = 77, 77, 77
                            UnitCellTotal = 27
              Atom number in sub-FFT-grid = 2
    Local orbitals number in sub-FFT-grid = 26
                                 lgd_last = 0
                                  lgd_now = 26
 allocate DM , the dimension is 26
        enter setAlltoallvParameter, nblk = 1
checkpoint 2
                                     pnum = 0
                                     prow = 0
                                     pcol = 0
                             nRow_in_proc = 13
                             nCol_in_proc = 7
                                     pnum = 1
                                     prow = 0
                                     pcol = 1
                             nRow_in_proc = 13
                             nCol_in_proc = 7
                                     pnum = 2
                                     prow = 0
                                     pcol = 2
                             nRow_in_proc = 13
                             nCol_in_proc = 6
                                     pnum = 3
                                     prow = 0
                                     pcol = 3
                             nRow_in_proc = 13
                             nCol_in_proc = 6
                                     pnum = 4
                                     prow = 1
                                     pcol = 0
                             nRow_in_proc = 13
                             nCol_in_proc = 7
                                     pnum = 5
                                     prow = 1
                                     pcol = 1
                             nRow_in_proc = 13
                             nCol_in_proc = 7
                                     pnum = 6
                                     prow = 1
                                     pcol = 2
                             nRow_in_proc = 13
                             nCol_in_proc = 6
                                     pnum = 7
                                     prow = 1
                                     pcol = 3
                             nRow_in_proc = 13
                             nCol_in_proc = 6
receiver_size is 676 ; receiver_size of each process is:
91 91 78 78 91 91 78 78 
sender_size is 728 ; sender_size of each process is:
91 91 91 91 91 91 91 91 
                         gamma_only_local = 1

 LCAO ALGORITHM --------------- ION=   1  ELEC=   1--------------------------------

vlocal exchange index is built
                          buffer size(M): = 0
                    buffer index size(M): = 0
 vlocal data are put in sender_buffer, size(M): = 0
 vlocal data are exchanged, received size(M): = 0

K-S equation was solved by genelpa2

eigenvalues were copied to ekb
              cal_dk_gamma_from_2D, NSPIN = 1
 number of non-zero elements in sender_buffer = 728
                              sender_size = 728
                       last sender_buffer = 0.00538
 number of non-zero elements in receiver_buffer = 676
                            receiver_size = 676
                     last receiver_buffer = 2.14e-17

 Density error is 0.173631620215

       Energy                       Rydberg                            eV
   E_KohnSham                -15.2349775814                -207.282504009
     E_Harris                -15.2691897413                -207.747984325
      E_Fermi               -0.366211469615                -4.98256265972

 LCAO ALGORITHM --------------- ION=   1  ELEC=   2--------------------------------
 vlocal data are put in sender_buffer, size(M): = 0
 vlocal data are exchanged, received size(M): = 0

K-S equation was solved by genelpa2

eigenvalues were copied to ekb
              cal_dk_gamma_from_2D, NSPIN = 1
 number of non-zero elements in sender_buffer = 728
                              sender_size = 728
                       last sender_buffer = 0.00286750324364
 number of non-zero elements in receiver_buffer = 676
                            receiver_size = 676
                     last receiver_buffer = -1.4166674057e-16

 Density error is 0.152598220988

       Energy                       Rydberg                            eV
   E_KohnSham                -15.2333633951                -207.260541878
     E_Harris                -15.2548674162                -207.553119095
      E_Fermi                -0.30488620161                -4.14818958347

 LCAO ALGORITHM --------------- ION=   1  ELEC=   3--------------------------------
 vlocal data are put in sender_buffer, size(M): = 0
 vlocal data are exchanged, received size(M): = 0

K-S equation was solved by genelpa2

eigenvalues were copied to ekb
              cal_dk_gamma_from_2D, NSPIN = 1
 number of non-zero elements in sender_buffer = 728
                              sender_size = 728
                       last sender_buffer = 0.0025395605032
 number of non-zero elements in receiver_buffer = 676
                            receiver_size = 676
                     last receiver_buffer = 3.31091207672e-18

 Density error is 0.127573527143

       Energy                       Rydberg                            eV
   E_KohnSham                -15.2464464986                -207.438546633
     E_Harris                -15.2576794643                -207.591378971
      E_Fermi               -0.307455425678                -4.18314567023

 LCAO ALGORITHM --------------- ION=   1  ELEC=   4--------------------------------
 vlocal data are put in sender_buffer, size(M): = 0
 vlocal data are exchanged, received size(M): = 0

K-S equation was solved by genelpa2

eigenvalues were copied to ekb
              cal_dk_gamma_from_2D, NSPIN = 1
 number of non-zero elements in sender_buffer = 728
                              sender_size = 728
                       last sender_buffer = 0.003218552894
 number of non-zero elements in receiver_buffer = 676
                            receiver_size = 676
                     last receiver_buffer = 5.86659279812e-18

 Density error is 0.027468938904

       Energy                       Rydberg                            eV
   E_KohnSham                -15.2488757047                -207.471597677
     E_Harris                -15.2493275509                -207.477745361
      E_Fermi               -0.315859371679                -4.29748722153

 LCAO ALGORITHM --------------- ION=   1  ELEC=   5--------------------------------
 vlocal data are put in sender_buffer, size(M): = 0
 vlocal data are exchanged, received size(M): = 0

K-S equation was solved by genelpa2

eigenvalues were copied to ekb
              cal_dk_gamma_from_2D, NSPIN = 1
 number of non-zero elements in sender_buffer = 728
                              sender_size = 728
                       last sender_buffer = 0.00316089791112
 number of non-zero elements in receiver_buffer = 676
                            receiver_size = 676
                     last receiver_buffer = 1.37672525156e-16

 Density error is 0.0174351560716

       Energy                       Rydberg                            eV
   E_KohnSham                -15.2490750272                -207.474309599
     E_Harris                -15.2492442451                -207.476611927
      E_Fermi               -0.314263790776                -4.27577822964

 LCAO ALGORITHM --------------- ION=   1  ELEC=   6--------------------------------
 vlocal data are put in sender_buffer, size(M): = 0
 vlocal data are exchanged, received size(M): = 0

K-S equation was solved by genelpa2

eigenvalues were copied to ekb
              cal_dk_gamma_from_2D, NSPIN = 1
 number of non-zero elements in sender_buffer = 728
                              sender_size = 728
                       last sender_buffer = 0.00316879092434
 number of non-zero elements in receiver_buffer = 676
                            receiver_size = 676
                     last receiver_buffer = -3.08143555096e-17

 Density error is 0.003943683772

       Energy                       Rydberg                            eV
   E_KohnSham                 -15.249165494                -207.475540464
     E_Harris                -15.2491715172                -207.475622413
      E_Fermi               -0.314377371284                -4.27732357172

 LCAO ALGORITHM --------------- ION=   1  ELEC=   7--------------------------------
 vlocal data are put in sender_buffer, size(M): = 0
 vlocal data are exchanged, received size(M): = 0

K-S equation was solved by genelpa2

eigenvalues were copied to ekb
              cal_dk_gamma_from_2D, NSPIN = 1
 number of non-zero elements in sender_buffer = 728
                              sender_size = 728
                       last sender_buffer = 0.00316873308827
 number of non-zero elements in receiver_buffer = 676
                            receiver_size = 676
                     last receiver_buffer = 2.8588222545e-16

 Density error is 0.000666924009394

       Energy                       Rydberg                            eV
   E_KohnSham                -15.2491675787                -207.475568827
     E_Harris                -15.2491677108                -207.475570625
      E_Fermi                -0.31436806503                -4.27719695364

 LCAO ALGORITHM --------------- ION=   1  ELEC=   8--------------------------------
 vlocal data are put in sender_buffer, size(M): = 0
 vlocal data are exchanged, received size(M): = 0

K-S equation was solved by genelpa2

eigenvalues were copied to ekb
              cal_dk_gamma_from_2D, NSPIN = 1
 number of non-zero elements in sender_buffer = 728
                              sender_size = 728
                       last sender_buffer = 0.0031681781079
 number of non-zero elements in receiver_buffer = 676
                            receiver_size = 676
                     last receiver_buffer = -2.28980011907e-16

 Density error is 0.000238907514465

       Energy                       Rydberg                            eV
   E_KohnSham                 -15.249167601                -207.475569131
     E_Harris                -15.2491676098                 -207.47556925
      E_Fermi               -0.314359205864                -4.27707641851

 LCAO ALGORITHM --------------- ION=   1  ELEC=   9--------------------------------
 vlocal data are put in sender_buffer, size(M): = 0
 vlocal data are exchanged, received size(M): = 0

K-S equation was solved by genelpa2

eigenvalues were copied to ekb
              cal_dk_gamma_from_2D, NSPIN = 1
 number of non-zero elements in sender_buffer = 728
                              sender_size = 728
                       last sender_buffer = 0.003168121761
 number of non-zero elements in receiver_buffer = 676
                            receiver_size = 676
                     last receiver_buffer = -1.39071603073e-16

 Density error is 0.000167705335224

       Energy                       Rydberg                            eV
   E_KohnSham                -15.2491675892                -207.475568969
     E_Harris                -15.2491676019                -207.475569143
      E_Fermi                -0.31435886951                -4.27707184217

 LCAO ALGORITHM --------------- ION=   1  ELEC=  10--------------------------------
 vlocal data are put in sender_buffer, size(M): = 0
 vlocal data are exchanged, received size(M): = 0

K-S equation was solved by genelpa2

eigenvalues were copied to ekb
              cal_dk_gamma_from_2D, NSPIN = 1
 number of non-zero elements in sender_buffer = 728
                              sender_size = 728
                       last sender_buffer = 0.00316806768063
 number of non-zero elements in receiver_buffer = 676
                            receiver_size = 676
                     last receiver_buffer = 2.6285738669e-16

 Density error is 2.21734804815e-06

       Energy                       Rydberg                            eV
   E_KohnSham                -15.2491675941                -207.475569037
     E_Harris                -15.2491675941                -207.475569037
      E_Fermi               -0.314358457486                 -4.2770662363

 LCAO ALGORITHM --------------- ION=   1  ELEC=  11--------------------------------
 vlocal data are put in sender_buffer, size(M): = 0
 vlocal data are exchanged, received size(M): = 0

K-S equation was solved by genelpa2

eigenvalues were copied to ekb
              cal_dk_gamma_from_2D, NSPIN = 1
 number of non-zero elements in sender_buffer = 728
                              sender_size = 728
                       last sender_buffer = 0.00316806742448
 number of non-zero elements in receiver_buffer = 676
                            receiver_size = 676
                     last receiver_buffer = -3.33120477534e-16

 Density error is 3.16566647634e-06

       Energy                       Rydberg                            eV
   E_KohnSham                -15.2491675942                -207.475569038
     E_Harris                -15.2491675942                -207.475569038
      E_Fermi               -0.314358448813                 -4.2770661183

 LCAO ALGORITHM --------------- ION=   1  ELEC=  12--------------------------------
 vlocal data are put in sender_buffer, size(M): = 0
 vlocal data are exchanged, received size(M): = 0

K-S equation was solved by genelpa2

eigenvalues were copied to ekb
              cal_dk_gamma_from_2D, NSPIN = 1
 number of non-zero elements in sender_buffer = 728
                              sender_size = 728
                       last sender_buffer = 0.00316806704259
 number of non-zero elements in receiver_buffer = 676
                            receiver_size = 676
                     last receiver_buffer = 7.21547064352e-16

 Density error is 4.0699914789e-09

       Energy                       Rydberg                            eV
   E_KohnSham                -15.2491675941                -207.475569037
     E_Harris                -15.2491675941                -207.475569037
      E_Fermi               -0.314358451618                -4.27706615647

 LCAO ALGORITHM --------------- ION=   1  ELEC=  13--------------------------------
 vlocal data are put in sender_buffer, size(M): = 0
 vlocal data are exchanged, received size(M): = 0

K-S equation was solved by genelpa2

eigenvalues were copied to ekb
              cal_dk_gamma_from_2D, NSPIN = 1
 number of non-zero elements in sender_buffer = 728
                              sender_size = 728
                       last sender_buffer = 0.00316806704035
 number of non-zero elements in receiver_buffer = 676
                            receiver_size = 676
                     last receiver_buffer = -9.05778249714e-16

 Density error is 6.08377967942e-10

       Energy                       Rydberg                            eV
   E_KohnSham                -15.2491675942                -207.475569037
     E_Harris                -15.2491675942                -207.475569037
       E_band                -4.12616985726                -56.1394209746
   E_one_elec                -15.2516065405                -207.508752605
    E_Hartree                +8.27507309683                +112.588145483
         E_xc                -4.16249357576                -56.6336305187
      E_Ewald                -4.09484335015                -55.7132019794
      E_demet              -0.0152972246022               -0.208129418176
      E_descf                            +0                            +0
     E_efield                            +0                            +0
        E_exx                            +0                            +0
      E_Fermi               -0.314358451557                -4.27706615563

 charge density convergence is achieved
 final etot is -207.475569037 eV

 STATE ENERGY(eV) AND OCCUPATIONS    NSPIN == 1
 1/1 kpoint (Cartesian) = 0 0 0 (2500 pws)
       1       -11.6698        2.00000
       2       -7.76032        2.00000
       3       -4.33679        1.46528
       4       -4.30993        1.26736
       5       -4.30993        1.26736
       6       -1.39449        0.00000
       7       -1.39449        0.00000
       8        2.94540        0.00000

 EFERMI = -4.277066155626732 eV
 OUT.ABACUS/ final etot is -207.4755690374039 eV
 correction force for each atom along direction 1 is 2.27483e-05
 correction force for each atom along direction 2 is 8.89579e-16
 correction force for each atom along direction 3 is 5.17934e-13

 ><><><><><><><><><><><><><><><><><><><><><><

    TOTAL-FORCE (eV/Angstrom)

 ><><><><><><><><><><><><><><><><><><><><><><

     atom              x              y              z
      Si1    -0.37492179              0              0
      Si2    +0.37492179              0              0

 Ion relaxation is not converged yet (threshold is 0.00099999250)

 CARTESIAN COORDINATES ( UNIT = 15.000000 Bohr ).
         atom                   x                   y                   z                 mag                  vx                  vy                  vz
     tauc_Si1       0.00000000000       0.00000000000       0.00000000000       0.00000000000       0.00000000000       0.00000000000       0.00000000000
     tauc_Si2      0.313333333334       0.00000000000       0.00000000000       0.00000000000       0.00000000000       0.00000000000       0.00000000000

 Setup the structure factor in plane wave basis.

 -------------------------------------------
 STEP OF ION RELAXATION : 2
 -------------------------------------------




 >>>>>>>>>>>>>>>>>>>>>>>>>>>>>>>>>>>>>>>>>>>>>>>>>>>>>>>>>>>>>>>>>>>>>>
 |                                                                    |
 | Search adjacent atoms:                                             |
 | Set the adjacent atoms for each atom and set the periodic boundary |
 | condition for the atoms on real space FFT grid. For k-dependent    |
 | algorithm, we also need to set the sparse H and S matrix element   |
 | for each atom.                                                     |
 |                                                                    |
 <<<<<<<<<<<<<<<<<<<<<<<<<<<<<<<<<<<<<<<<<<<<<<<<<<<<<<<<<<<<<<<<<<<<<<





 SETUP SEARCHING RADIUS FOR PROGRAM TO SEARCH ADJACENT ATOMS
                  longest orb rcut (Bohr) = 8.00
   longest nonlocal projector rcut (Bohr) = 5.01
              searching radius is (Bohr)) = 16.0
         searching radius unit is (Bohr)) = 15.0

 SETUP EXTENDED REAL SPACE GRID FOR GRID INTEGRATION
                        [real space grid] = 72, 72, 72
               [big cell numbers in grid] = 36, 36, 36
           [meshcell numbers in big cell] = 2, 2, 2
                      [extended fft grid] = 20, 20, 20
              [dimension of extened grid] = 77, 77, 77
                            UnitCellTotal = 27
              Atom number in sub-FFT-grid = 2
    Local orbitals number in sub-FFT-grid = 26
                                 lgd_last = 26
                                  lgd_now = 26
 allocate DM , the dimension is 26
        enter setAlltoallvParameter, nblk = 1
checkpoint 2
                                     pnum = 0
                                     prow = 0
                                     pcol = 0
                             nRow_in_proc = 13
                             nCol_in_proc = 7
                                     pnum = 1
                                     prow = 0
                                     pcol = 1
                             nRow_in_proc = 13
                             nCol_in_proc = 7
                                     pnum = 2
                                     prow = 0
                                     pcol = 2
                             nRow_in_proc = 13
                             nCol_in_proc = 6
                                     pnum = 3
                                     prow = 0
                                     pcol = 3
                             nRow_in_proc = 13
                             nCol_in_proc = 6
                                     pnum = 4
                                     prow = 1
                                     pcol = 0
                             nRow_in_proc = 13
                             nCol_in_proc = 7
                                     pnum = 5
                                     prow = 1
                                     pcol = 1
                             nRow_in_proc = 13
                             nCol_in_proc = 7
                                     pnum = 6
                                     prow = 1
                                     pcol = 2
                             nRow_in_proc = 13
                             nCol_in_proc = 6
                                     pnum = 7
                                     prow = 1
                                     pcol = 3
                             nRow_in_proc = 13
                             nCol_in_proc = 6
receiver_size is 676 ; receiver_size of each process is:
91 91 78 78 91 91 78 78 
sender_size is 728 ; sender_size of each process is:
91 91 91 91 91 91 91 91 
                         gamma_only_local = 1

 LCAO ALGORITHM --------------- ION=   2  ELEC=   1--------------------------------

vlocal exchange index is built
                          buffer size(M): = 0
                    buffer index size(M): = 0
 vlocal data are put in sender_buffer, size(M): = 0
 vlocal data are exchanged, received size(M): = 0

K-S equation was solved by genelpa2

eigenvalues were copied to ekb
              cal_dk_gamma_from_2D, NSPIN = 1
 number of non-zero elements in sender_buffer = 728
                              sender_size = 728
                       last sender_buffer = 0.00254
 number of non-zero elements in receiver_buffer = 676
                            receiver_size = 676
                     last receiver_buffer = 2.62e-15

 Density error is 0.0786091955182

       Energy                       Rydberg                            eV
   E_KohnSham                -15.2351099663                -207.284305198
     E_Harris                -15.2425592737                -207.385658225
      E_Fermi               -0.281096593542                -3.82451536056

 LCAO ALGORITHM --------------- ION=   2  ELEC=   2--------------------------------
 vlocal data are put in sender_buffer, size(M): = 0
 vlocal data are exchanged, received size(M): = 0

K-S equation was solved by genelpa2

eigenvalues were copied to ekb
              cal_dk_gamma_from_2D, NSPIN = 1
 number of non-zero elements in sender_buffer = 728
                              sender_size = 728
                       last sender_buffer = 0.00397759237942
 number of non-zero elements in receiver_buffer = 676
                            receiver_size = 676
                     last receiver_buffer = -2.62180427870e-15

 Density error is 0.0457259662459

       Energy                       Rydberg                            eV
   E_KohnSham                -15.2339035298                -207.267890787
     E_Harris                -15.2405976227                -207.358968595
      E_Fermi               -0.296598738955                -4.03543286940

 LCAO ALGORITHM --------------- ION=   2  ELEC=   3--------------------------------
 vlocal data are put in sender_buffer, size(M): = 0
 vlocal data are exchanged, received size(M): = 0

K-S equation was solved by genelpa2

eigenvalues were copied to ekb
              cal_dk_gamma_from_2D, NSPIN = 1
 number of non-zero elements in sender_buffer = 728
                              sender_size = 728
                       last sender_buffer = 0.00318904302171
 number of non-zero elements in receiver_buffer = 676
                            receiver_size = 676
                     last receiver_buffer = 8.56404089191e-16

 Density error is 0.0569240935211

       Energy                       Rydberg                            eV
   E_KohnSham                -15.2352062235                -207.285614845
     E_Harris                -15.2417031287                -207.374009775
      E_Fermi               -0.292360317699                -3.97776618979

 LCAO ALGORITHM --------------- ION=   2  ELEC=   4--------------------------------
 vlocal data are put in sender_buffer, size(M): = 0
 vlocal data are exchanged, received size(M): = 0

K-S equation was solved by genelpa2

eigenvalues were copied to ekb
              cal_dk_gamma_from_2D, NSPIN = 1
 number of non-zero elements in sender_buffer = 728
                              sender_size = 728
                       last sender_buffer = 0.00332227818869
 number of non-zero elements in receiver_buffer = 676
                            receiver_size = 676
                     last receiver_buffer = 6.58682379936e-16

 Density error is 0.0171242974814

       Energy                       Rydberg                            eV
   E_KohnSham                -15.2383670188                -207.328619671
     E_Harris                -15.2388753694                -207.335536136
      E_Fermi               -0.291050921844                -3.95995094524

 LCAO ALGORITHM --------------- ION=   2  ELEC=   5--------------------------------
 vlocal data are put in sender_buffer, size(M): = 0
 vlocal data are exchanged, received size(M): = 0

K-S equation was solved by genelpa2

eigenvalues were copied to ekb
              cal_dk_gamma_from_2D, NSPIN = 1
 number of non-zero elements in sender_buffer = 728
                              sender_size = 728
                       last sender_buffer = 0.00345392455262
 number of non-zero elements in receiver_buffer = 676
                            receiver_size = 676
                     last receiver_buffer = -2.14870880050e-16

 Density error is 0.00136130279901

       Energy                       Rydberg                            eV
   E_KohnSham                -15.2385737774                -207.331432766
     E_Harris                -15.2385757185                -207.331459176
      E_Fermi               -0.291917772520                -3.97174505373

 LCAO ALGORITHM --------------- ION=   2  ELEC=   6--------------------------------
 vlocal data are put in sender_buffer, size(M): = 0
 vlocal data are exchanged, received size(M): = 0

K-S equation was solved by genelpa2

eigenvalues were copied to ekb
              cal_dk_gamma_from_2D, NSPIN = 1
 number of non-zero elements in sender_buffer = 728
                              sender_size = 728
                       last sender_buffer = 0.00345866766942
 number of non-zero elements in receiver_buffer = 676
                            receiver_size = 676
                     last receiver_buffer = 1.57769812729e-16

 Density error is 0.000269871967714

       Energy                       Rydberg                            eV
   E_KohnSham                -15.2385743726                -207.331440864
     E_Harris                -15.2385745144                -207.331442793
      E_Fermi               -0.292241526151                -3.97614994787

 LCAO ALGORITHM --------------- ION=   2  ELEC=   7--------------------------------
 vlocal data are put in sender_buffer, size(M): = 0
 vlocal data are exchanged, received size(M): = 0

K-S equation was solved by genelpa2

eigenvalues were copied to ekb
              cal_dk_gamma_from_2D, NSPIN = 1
 number of non-zero elements in sender_buffer = 728
                              sender_size = 728
                       last sender_buffer = 0.00345433377244
 number of non-zero elements in receiver_buffer = 676
                            receiver_size = 676
                     last receiver_buffer = -2.77748128241e-16

 Density error is 9.39508015944e-05

       Energy                       Rydberg                            eV
   E_KohnSham                -15.2385744419                -207.331441807
     E_Harris                -15.2385744525                -207.331441952
      E_Fermi               -0.292231266087                -3.97601035253

 LCAO ALGORITHM --------------- ION=   2  ELEC=   8--------------------------------
 vlocal data are put in sender_buffer, size(M): = 0
 vlocal data are exchanged, received size(M): = 0

K-S equation was solved by genelpa2

eigenvalues were copied to ekb
              cal_dk_gamma_from_2D, NSPIN = 1
 number of non-zero elements in sender_buffer = 728
                              sender_size = 728
                       last sender_buffer = 0.00345545766799
 number of non-zero elements in receiver_buffer = 676
                            receiver_size = 676
                     last receiver_buffer = 3.87895378770e-16

 Density error is 4.67083637108e-06

       Energy                       Rydberg                            eV
   E_KohnSham                -15.2385744451                -207.331441850
     E_Harris                -15.2385744451                -207.331441851
      E_Fermi               -0.292233929254                -3.97604658678

 LCAO ALGORITHM --------------- ION=   2  ELEC=   9--------------------------------
 vlocal data are put in sender_buffer, size(M): = 0
 vlocal data are exchanged, received size(M): = 0

K-S equation was solved by genelpa2

eigenvalues were copied to ekb
              cal_dk_gamma_from_2D, NSPIN = 1
 number of non-zero elements in sender_buffer = 728
                              sender_size = 728
                       last sender_buffer = 0.00345549334009
 number of non-zero elements in receiver_buffer = 676
                            receiver_size = 676
                     last receiver_buffer = -6.16619859724e-16

 Density error is 8.04674892787e-07

       Energy                       Rydberg                            eV
   E_KohnSham                -15.2385744453                -207.331441853
     E_Harris                -15.2385744453                -207.331441853
      E_Fermi               -0.292234080847                -3.97604864931

 LCAO ALGORITHM --------------- ION=   2  ELEC=  10--------------------------------
 vlocal data are put in sender_buffer, size(M): = 0
 vlocal data are exchanged, received size(M): = 0

K-S equation was solved by genelpa2

eigenvalues were copied to ekb
              cal_dk_gamma_from_2D, NSPIN = 1
 number of non-zero elements in sender_buffer = 728
                              sender_size = 728
                       last sender_buffer = 0.00345549550351
 number of non-zero elements in receiver_buffer = 676
                            receiver_size = 676
                     last receiver_buffer = 7.14851414100e-16

 Density error is 9.26937613602e-08

       Energy                       Rydberg                            eV
   E_KohnSham                -15.2385744452                -207.331441852
     E_Harris                -15.2385744452                -207.331441852
      E_Fermi               -0.292234048399                -3.97604820783

 LCAO ALGORITHM --------------- ION=   2  ELEC=  11--------------------------------
 vlocal data are put in sender_buffer, size(M): = 0
 vlocal data are exchanged, received size(M): = 0

K-S equation was solved by genelpa2

eigenvalues were copied to ekb
              cal_dk_gamma_from_2D, NSPIN = 1
 number of non-zero elements in sender_buffer = 728
                              sender_size = 728
                       last sender_buffer = 0.00345549499077
 number of non-zero elements in receiver_buffer = 676
                            receiver_size = 676
                     last receiver_buffer = -1.03101041315e-15

 Density error is 1.33751505525e-08

       Energy                       Rydberg                            eV
   E_KohnSham                -15.2385744452                -207.331441852
     E_Harris                -15.2385744452                -207.331441852
      E_Fermi               -0.292234047211                -3.97604819168

 LCAO ALGORITHM --------------- ION=   2  ELEC=  12--------------------------------
 vlocal data are put in sender_buffer, size(M): = 0
 vlocal data are exchanged, received size(M): = 0

K-S equation was solved by genelpa2

eigenvalues were copied to ekb
              cal_dk_gamma_from_2D, NSPIN = 1
 number of non-zero elements in sender_buffer = 728
                              sender_size = 728
                       last sender_buffer = 0.00345549495594
 number of non-zero elements in receiver_buffer = 676
                            receiver_size = 676
                     last receiver_buffer = 1.32825305588e-15

 Density error is 3.39706875926e-09

       Energy                       Rydberg                            eV
   E_KohnSham                -15.2385744452                -207.331441852
     E_Harris                -15.2385744452                -207.331441852
      E_Fermi               -0.292234046560                -3.97604818282

 LCAO ALGORITHM --------------- ION=   2  ELEC=  13--------------------------------
 vlocal data are put in sender_buffer, size(M): = 0
 vlocal data are exchanged, received size(M): = 0

K-S equation was solved by genelpa2

eigenvalues were copied to ekb
              cal_dk_gamma_from_2D, NSPIN = 1
 number of non-zero elements in sender_buffer = 728
                              sender_size = 728
                       last sender_buffer = 0.00345549494191
 number of non-zero elements in receiver_buffer = 676
                            receiver_size = 676
                     last receiver_buffer = -2.01702133694e-15

 Density error is 1.50822971238e-10

       Energy                       Rydberg                            eV
   E_KohnSham                -15.2385744452                -207.331441852
     E_Harris                -15.2385744452                -207.331441852
       E_band                -3.98434818499                -54.2098381318
   E_one_elec                -14.0343063451                -190.946533771
    E_Hartree                +7.68762464030                +104.595499193
         E_xc                -4.08662792841                -55.6014254323
      E_Ewald                -4.79288629966                -65.2105635415
      E_demet              -0.0123785123324               -0.168418300484
      E_descf                +0.00000000000                +0.00000000000
     E_efield                +0.00000000000                +0.00000000000
        E_exx                +0.00000000000                +0.00000000000
      E_Fermi               -0.292234046502                -3.97604818202

 charge density convergence is achieved
 final etot is -207.331441852 eV

 STATE ENERGY(eV) AND OCCUPATIONS    NSPIN == 1
 1/1 kpoint (Cartesian) = 0.0000 0.0000 0.0000 (2500 pws)
       1       -10.9419        2.00000
       2       -8.03899        2.00000
       3       -4.14973        1.92897
       4       -3.98033        1.03551
       5       -3.98033        1.03551
       6       -1.76322        0.00000
       7       -1.76322        0.00000
       8        1.84215        0.00000

 EFERMI = -3.976048182021407 eV
 OUT.ABACUS/ final etot is -207.3314418524045 eV
 correction force for each atom along direction 1 is 0.000196726
 correction force for each atom along direction 2 is 1.99165e-15
 correction force for each atom along direction 3 is 1.09174e-12

 ><><><><><><><><><><><><><><><><><><><><><><

    TOTAL-FORCE (eV/Angstrom)

 ><><><><><><><><><><><><><><><><><><><><><><

     atom              x              y              z
      Si1     +1.2178530              0              0
      Si2     -1.2178530              0              0

 Ion relaxation is not converged yet (threshold is 0.00099999250)

 CARTESIAN COORDINATES ( UNIT = 15.000000 Bohr ).
         atom                   x                   y                   z                 mag                  vx                  vy                  vz
     tauc_Si1       0.00000000000       0.00000000000       0.00000000000       0.00000000000       0.00000000000       0.00000000000       0.00000000000
     tauc_Si2      0.299569973983       0.00000000000       0.00000000000       0.00000000000       0.00000000000       0.00000000000       0.00000000000

 Setup the structure factor in plane wave basis.

 -------------------------------------------
 STEP OF ION RELAXATION : 3
 -------------------------------------------




 >>>>>>>>>>>>>>>>>>>>>>>>>>>>>>>>>>>>>>>>>>>>>>>>>>>>>>>>>>>>>>>>>>>>>>
 |                                                                    |
 | Search adjacent atoms:                                             |
 | Set the adjacent atoms for each atom and set the periodic boundary |
 | condition for the atoms on real space FFT grid. For k-dependent    |
 | algorithm, we also need to set the sparse H and S matrix element   |
 | for each atom.                                                     |
 |                                                                    |
 <<<<<<<<<<<<<<<<<<<<<<<<<<<<<<<<<<<<<<<<<<<<<<<<<<<<<<<<<<<<<<<<<<<<<<





 SETUP SEARCHING RADIUS FOR PROGRAM TO SEARCH ADJACENT ATOMS
                  longest orb rcut (Bohr) = 8.00
   longest nonlocal projector rcut (Bohr) = 5.01
              searching radius is (Bohr)) = 16.0
         searching radius unit is (Bohr)) = 15.0

 SETUP EXTENDED REAL SPACE GRID FOR GRID INTEGRATION
                        [real space grid] = 72, 72, 72
               [big cell numbers in grid] = 36, 36, 36
           [meshcell numbers in big cell] = 2, 2, 2
                      [extended fft grid] = 20, 20, 20
              [dimension of extened grid] = 77, 77, 77
                            UnitCellTotal = 27
              Atom number in sub-FFT-grid = 2
    Local orbitals number in sub-FFT-grid = 26
                                 lgd_last = 26
                                  lgd_now = 26
 allocate DM , the dimension is 26
        enter setAlltoallvParameter, nblk = 1
checkpoint 2
                                     pnum = 0
                                     prow = 0
                                     pcol = 0
                             nRow_in_proc = 13
                             nCol_in_proc = 7
                                     pnum = 1
                                     prow = 0
                                     pcol = 1
                             nRow_in_proc = 13
                             nCol_in_proc = 7
                                     pnum = 2
                                     prow = 0
                                     pcol = 2
                             nRow_in_proc = 13
                             nCol_in_proc = 6
                                     pnum = 3
                                     prow = 0
                                     pcol = 3
                             nRow_in_proc = 13
                             nCol_in_proc = 6
                                     pnum = 4
                                     prow = 1
                                     pcol = 0
                             nRow_in_proc = 13
                             nCol_in_proc = 7
                                     pnum = 5
                                     prow = 1
                                     pcol = 1
                             nRow_in_proc = 13
                             nCol_in_proc = 7
                                     pnum = 6
                                     prow = 1
                                     pcol = 2
                             nRow_in_proc = 13
                             nCol_in_proc = 6
                                     pnum = 7
                                     prow = 1
                                     pcol = 3
                             nRow_in_proc = 13
                             nCol_in_proc = 6
receiver_size is 676 ; receiver_size of each process is:
91 91 78 78 91 91 78 78 
sender_size is 728 ; sender_size of each process is:
91 91 91 91 91 91 91 91 
                         gamma_only_local = 1

 LCAO ALGORITHM --------------- ION=   3  ELEC=   1--------------------------------

vlocal exchange index is built
                          buffer size(M): = 0
                    buffer index size(M): = 0
 vlocal data are put in sender_buffer, size(M): = 0
 vlocal data are exchanged, received size(M): = 0

K-S equation was solved by genelpa2

eigenvalues were copied to ekb
              cal_dk_gamma_from_2D, NSPIN = 1
 number of non-zero elements in sender_buffer = 728
                              sender_size = 728
                       last sender_buffer = 0.00345
 number of non-zero elements in receiver_buffer = 676
                            receiver_size = 676
                     last receiver_buffer = 3.96e-15

 Density error is 0.0496968226588

       Energy                       Rydberg                            eV
   E_KohnSham                -15.2443817888                -207.410454815
     E_Harris                -15.2471068243                -207.447530825
      E_Fermi               -0.304665499211                -4.14518677328

 LCAO ALGORITHM --------------- ION=   3  ELEC=   2--------------------------------
 vlocal data are put in sender_buffer, size(M): = 0
 vlocal data are exchanged, received size(M): = 0

K-S equation was solved by genelpa2

eigenvalues were copied to ekb
              cal_dk_gamma_from_2D, NSPIN = 1
 number of non-zero elements in sender_buffer = 728
                              sender_size = 728
                       last sender_buffer = 0.00299804847255
 number of non-zero elements in receiver_buffer = 676
                            receiver_size = 676
                     last receiver_buffer = -4.46665334227e-15

 Density error is 0.0596242374370

       Energy                       Rydberg                            eV
   E_KohnSham                -15.2456101972                -207.427168169
     E_Harris                -15.2487745143                -207.470220911
      E_Fermi               -0.299396316891                -4.07349586993

 LCAO ALGORITHM --------------- ION=   3  ELEC=   3--------------------------------
 vlocal data are put in sender_buffer, size(M): = 0
 vlocal data are exchanged, received size(M): = 0

K-S equation was solved by genelpa2

eigenvalues were copied to ekb
              cal_dk_gamma_from_2D, NSPIN = 1
 number of non-zero elements in sender_buffer = 728
                              sender_size = 728
                       last sender_buffer = 0.00347485934481
 number of non-zero elements in receiver_buffer = 676
                            receiver_size = 676
                     last receiver_buffer = -7.40252670470e-17

 Density error is 0.00865608607227

       Energy                       Rydberg                            eV
   E_KohnSham                -15.2464532990                -207.438639158
     E_Harris                -15.2465168609                -207.439503961
      E_Fermi               -0.301798088993                -4.10617365581

 LCAO ALGORITHM --------------- ION=   3  ELEC=   4--------------------------------
 vlocal data are put in sender_buffer, size(M): = 0
 vlocal data are exchanged, received size(M): = 0

K-S equation was solved by genelpa2

eigenvalues were copied to ekb
              cal_dk_gamma_from_2D, NSPIN = 1
 number of non-zero elements in sender_buffer = 728
                              sender_size = 728
                       last sender_buffer = 0.00344807308850
 number of non-zero elements in receiver_buffer = 676
                            receiver_size = 676
                     last receiver_buffer = -9.33349779731e-17

 Density error is 0.00954787406981

       Energy                       Rydberg                            eV
   E_KohnSham                -15.2464165844                -207.438139630
     E_Harris                -15.2465792701                -207.440353083
      E_Fermi               -0.301206237308                -4.09812110054

 LCAO ALGORITHM --------------- ION=   3  ELEC=   5--------------------------------
 vlocal data are put in sender_buffer, size(M): = 0
 vlocal data are exchanged, received size(M): = 0

K-S equation was solved by genelpa2

eigenvalues were copied to ekb
              cal_dk_gamma_from_2D, NSPIN = 1
 number of non-zero elements in sender_buffer = 728
                              sender_size = 728
                       last sender_buffer = 0.00347025748161
 number of non-zero elements in receiver_buffer = 676
                            receiver_size = 676
                     last receiver_buffer = 1.34363458226e-17

 Density error is 0.00349002113673

       Energy                       Rydberg                            eV
   E_KohnSham                -15.2464923931                -207.439171060
     E_Harris                -15.2465065559                -207.439363754
      E_Fermi               -0.301370780003                -4.10035981875

 LCAO ALGORITHM --------------- ION=   3  ELEC=   6--------------------------------
 vlocal data are put in sender_buffer, size(M): = 0
 vlocal data are exchanged, received size(M): = 0

K-S equation was solved by genelpa2

eigenvalues were copied to ekb
              cal_dk_gamma_from_2D, NSPIN = 1
 number of non-zero elements in sender_buffer = 728
                              sender_size = 728
                       last sender_buffer = 0.00346961931868
 number of non-zero elements in receiver_buffer = 676
                            receiver_size = 676
                     last receiver_buffer = -4.00825447513e-18

 Density error is 0.000396030276900

       Energy                       Rydberg                            eV
   E_KohnSham                -15.2464986125                -207.439255678
     E_Harris                -15.2464989096                -207.439259722
      E_Fermi               -0.301589866328                -4.10334064112

 LCAO ALGORITHM --------------- ION=   3  ELEC=   7--------------------------------
 vlocal data are put in sender_buffer, size(M): = 0
 vlocal data are exchanged, received size(M): = 0

K-S equation was solved by genelpa2

eigenvalues were copied to ekb
              cal_dk_gamma_from_2D, NSPIN = 1
 number of non-zero elements in sender_buffer = 728
                              sender_size = 728
                       last sender_buffer = 0.00346615986509
 number of non-zero elements in receiver_buffer = 676
                            receiver_size = 676
                     last receiver_buffer = 1.22367601860e-16

 Density error is 0.000360019950203

       Energy                       Rydberg                            eV
   E_KohnSham                -15.2464987103                -207.439257010
     E_Harris                -15.2464988109                -207.439258378
      E_Fermi               -0.301554122888                -4.10285432667

 LCAO ALGORITHM --------------- ION=   3  ELEC=   8--------------------------------
 vlocal data are put in sender_buffer, size(M): = 0
 vlocal data are exchanged, received size(M): = 0

K-S equation was solved by genelpa2

eigenvalues were copied to ekb
              cal_dk_gamma_from_2D, NSPIN = 1
 number of non-zero elements in sender_buffer = 728
                              sender_size = 728
                       last sender_buffer = 0.00346715312555
 number of non-zero elements in receiver_buffer = 676
                            receiver_size = 676
                     last receiver_buffer = -1.95751832216e-16

 Density error is 0.000136580698268

       Energy                       Rydberg                            eV
   E_KohnSham                -15.2464987581                -207.439257659
     E_Harris                -15.2464987680                -207.439257795
      E_Fermi               -0.301553555399                -4.10284660558

 LCAO ALGORITHM --------------- ION=   3  ELEC=   9--------------------------------
 vlocal data are put in sender_buffer, size(M): = 0
 vlocal data are exchanged, received size(M): = 0

K-S equation was solved by genelpa2

eigenvalues were copied to ekb
              cal_dk_gamma_from_2D, NSPIN = 1
 number of non-zero elements in sender_buffer = 728
                              sender_size = 728
                       last sender_buffer = 0.00346689671384
 number of non-zero elements in receiver_buffer = 676
                            receiver_size = 676
                     last receiver_buffer = 2.04256077619e-16

 Density error is 1.86416939385e-05

       Energy                       Rydberg                            eV
   E_KohnSham                -15.2464987628                -207.439257724
     E_Harris                -15.2464987630                -207.439257726
      E_Fermi               -0.301553799221                -4.10284992296

 LCAO ALGORITHM --------------- ION=   3  ELEC=  10--------------------------------
 vlocal data are put in sender_buffer, size(M): = 0
 vlocal data are exchanged, received size(M): = 0

K-S equation was solved by genelpa2

eigenvalues were copied to ekb
              cal_dk_gamma_from_2D, NSPIN = 1
 number of non-zero elements in sender_buffer = 728
                              sender_size = 728
                       last sender_buffer = 0.00346686542025
 number of non-zero elements in receiver_buffer = 676
                            receiver_size = 676
                     last receiver_buffer = -3.91789659649e-16

 Density error is 3.26166058310e-07

       Energy                       Rydberg                            eV
   E_KohnSham                -15.2464987630                -207.439257727
     E_Harris                -15.2464987630                -207.439257727
      E_Fermi               -0.301553877799                -4.10285099207

 LCAO ALGORITHM --------------- ION=   3  ELEC=  11--------------------------------
 vlocal data are put in sender_buffer, size(M): = 0
 vlocal data are exchanged, received size(M): = 0

K-S equation was solved by genelpa2

eigenvalues were copied to ekb
              cal_dk_gamma_from_2D, NSPIN = 1
 number of non-zero elements in sender_buffer = 728
                              sender_size = 728
                       last sender_buffer = 0.00346686487487
 number of non-zero elements in receiver_buffer = 676
                            receiver_size = 676
                     last receiver_buffer = 6.88847269595e-16

 Density error is 1.47847689939e-08

       Energy                       Rydberg                            eV
   E_KohnSham                -15.2464987631                -207.439257728
     E_Harris                -15.2464987631                -207.439257728
      E_Fermi               -0.301553879806                -4.10285101937

 LCAO ALGORITHM --------------- ION=   3  ELEC=  12--------------------------------
 vlocal data are put in sender_buffer, size(M): = 0
 vlocal data are exchanged, received size(M): = 0

K-S equation was solved by genelpa2

eigenvalues were copied to ekb
              cal_dk_gamma_from_2D, NSPIN = 1
 number of non-zero elements in sender_buffer = 728
                              sender_size = 728
                       last sender_buffer = 0.00346686484667
 number of non-zero elements in receiver_buffer = 676
                            receiver_size = 676
                     last receiver_buffer = -1.20575013153e-15

 Density error is 9.51528512136e-10

       Energy                       Rydberg                            eV
   E_KohnSham                -15.2464987631                -207.439257728
     E_Harris                -15.2464987631                -207.439257728
       E_band                -4.03879718028                -54.9506547182
   E_one_elec                -14.5005960678                -197.290730919
    E_Hartree                +7.91288075601                +107.660265876
         E_xc                -4.11613744595                -56.0029230160
      E_Ewald                -4.52875804830                -61.6169143203
      E_demet              -0.0138879570238               -0.188955349103
      E_descf                +0.00000000000                +0.00000000000
     E_efield                +0.00000000000                +0.00000000000
        E_exx                +0.00000000000                +0.00000000000
      E_Fermi               -0.301553879776                -4.10285101896

 charge density convergence is achieved
 final etot is -207.439257728 eV

 STATE ENERGY(eV) AND OCCUPATIONS    NSPIN == 1
 1/1 kpoint (Cartesian) = 0.0000 0.0000 0.0000 (2500 pws)
       1       -11.2321        2.00000
       2       -7.91917        2.00000
       3       -4.21911        1.77313
       4       -4.11658        1.11344
       5       -4.11658        1.11344
       6       -1.62324        0.00000
       7       -1.62324        0.00000
       8        2.27964        0.00000

 EFERMI = -4.102851018956615 eV
 OUT.ABACUS/ final etot is -207.4392577277966 eV
 correction force for each atom along direction 1 is 0.000122567
 correction force for each atom along direction 2 is 7.69082e-16
 correction force for each atom along direction 3 is 6.87491e-13

 ><><><><><><><><><><><><><><><><><><><><><><

    TOTAL-FORCE (eV/Angstrom)

 ><><><><><><><><><><><><><><><><><><><><><><

     atom              x              y              z
      Si1    +0.73215220              0              0
      Si2    -0.73215220              0              0

 Ion relaxation is not converged yet (threshold is 0.00099999250)

 CARTESIAN COORDINATES ( UNIT = 15.000000 Bohr ).
         atom                   x                   y                   z                 mag                  vx                  vy                  vz
     tauc_Si1       0.00000000000       0.00000000000       0.00000000000       0.00000000000       0.00000000000       0.00000000000       0.00000000000
     tauc_Si2      0.285732380320       0.00000000000       0.00000000000       0.00000000000       0.00000000000       0.00000000000       0.00000000000

 Setup the structure factor in plane wave basis.

 -------------------------------------------
 STEP OF ION RELAXATION : 4
 -------------------------------------------




 >>>>>>>>>>>>>>>>>>>>>>>>>>>>>>>>>>>>>>>>>>>>>>>>>>>>>>>>>>>>>>>>>>>>>>
 |                                                                    |
 | Search adjacent atoms:                                             |
 | Set the adjacent atoms for each atom and set the periodic boundary |
 | condition for the atoms on real space FFT grid. For k-dependent    |
 | algorithm, we also need to set the sparse H and S matrix element   |
 | for each atom.                                                     |
 |                                                                    |
 <<<<<<<<<<<<<<<<<<<<<<<<<<<<<<<<<<<<<<<<<<<<<<<<<<<<<<<<<<<<<<<<<<<<<<





 SETUP SEARCHING RADIUS FOR PROGRAM TO SEARCH ADJACENT ATOMS
                  longest orb rcut (Bohr) = 8.00
   longest nonlocal projector rcut (Bohr) = 5.01
              searching radius is (Bohr)) = 16.0
         searching radius unit is (Bohr)) = 15.0

 SETUP EXTENDED REAL SPACE GRID FOR GRID INTEGRATION
                        [real space grid] = 72, 72, 72
               [big cell numbers in grid] = 36, 36, 36
           [meshcell numbers in big cell] = 2, 2, 2
                      [extended fft grid] = 20, 20, 20
              [dimension of extened grid] = 77, 77, 77
                            UnitCellTotal = 27
              Atom number in sub-FFT-grid = 2
    Local orbitals number in sub-FFT-grid = 26
                                 lgd_last = 26
                                  lgd_now = 26
 allocate DM , the dimension is 26
        enter setAlltoallvParameter, nblk = 1
checkpoint 2
                                     pnum = 0
                                     prow = 0
                                     pcol = 0
                             nRow_in_proc = 13
                             nCol_in_proc = 7
                                     pnum = 1
                                     prow = 0
                                     pcol = 1
                             nRow_in_proc = 13
                             nCol_in_proc = 7
                                     pnum = 2
                                     prow = 0
                                     pcol = 2
                             nRow_in_proc = 13
                             nCol_in_proc = 6
                                     pnum = 3
                                     prow = 0
                                     pcol = 3
                             nRow_in_proc = 13
                             nCol_in_proc = 6
                                     pnum = 4
                                     prow = 1
                                     pcol = 0
                             nRow_in_proc = 13
                             nCol_in_proc = 7
                                     pnum = 5
                                     prow = 1
                                     pcol = 1
                             nRow_in_proc = 13
                             nCol_in_proc = 7
                                     pnum = 6
                                     prow = 1
                                     pcol = 2
                             nRow_in_proc = 13
                             nCol_in_proc = 6
                                     pnum = 7
                                     prow = 1
                                     pcol = 3
                             nRow_in_proc = 13
                             nCol_in_proc = 6
receiver_size is 676 ; receiver_size of each process is:
91 91 78 78 91 91 78 78 
sender_size is 728 ; sender_size of each process is:
91 91 91 91 91 91 91 91 
                         gamma_only_local = 1

 LCAO ALGORITHM --------------- ION=   4  ELEC=   1--------------------------------

vlocal exchange index is built
                          buffer size(M): = 0
                    buffer index size(M): = 0
 vlocal data are put in sender_buffer, size(M): = 0
 vlocal data are exchanged, received size(M): = 0

K-S equation was solved by genelpa2

eigenvalues were copied to ekb
              cal_dk_gamma_from_2D, NSPIN = 1
 number of non-zero elements in sender_buffer = 728
                              sender_size = 728
                       last sender_buffer = 0.00321
 number of non-zero elements in receiver_buffer = 676
                            receiver_size = 676
                     last receiver_buffer = 3.07e-15

 Density error is 0.0979550042401

       Energy                       Rydberg                            eV
   E_KohnSham                -15.2390650390                -207.338116723
     E_Harris                -15.2520836205                -207.515243612
      E_Fermi               -0.314389839524                -4.27749321083

 LCAO ALGORITHM --------------- ION=   4  ELEC=   2--------------------------------
 vlocal data are put in sender_buffer, size(M): = 0
 vlocal data are exchanged, received size(M): = 0

K-S equation was solved by genelpa2

eigenvalues were copied to ekb
              cal_dk_gamma_from_2D, NSPIN = 1
 number of non-zero elements in sender_buffer = 728
                              sender_size = 728
                       last sender_buffer = 0.00228882889522
 number of non-zero elements in receiver_buffer = 676
                            receiver_size = 676
                     last receiver_buffer = -3.38555205264e-15

 Density error is 0.133093093853

       Energy                       Rydberg                            eV
   E_KohnSham                -15.2482445743                -207.463010708
     E_Harris                -15.2635513333                -207.671269848
      E_Fermi               -0.303828556098                -4.13379957804

 LCAO ALGORITHM --------------- ION=   4  ELEC=   3--------------------------------
 vlocal data are put in sender_buffer, size(M): = 0
 vlocal data are exchanged, received size(M): = 0

K-S equation was solved by genelpa2

eigenvalues were copied to ekb
              cal_dk_gamma_from_2D, NSPIN = 1
 number of non-zero elements in sender_buffer = 728
                              sender_size = 728
                       last sender_buffer = 0.00325263706676
 number of non-zero elements in receiver_buffer = 676
                            receiver_size = 676
                     last receiver_buffer = -6.72617221057e-16

 Density error is 0.0507392060436

       Energy                       Rydberg                            eV
   E_KohnSham                -15.2489428985                -207.472511896
     E_Harris                -15.2505412327                -207.494258348
      E_Fermi               -0.311040858868                -4.23192799142

 LCAO ALGORITHM --------------- ION=   4  ELEC=   4--------------------------------
 vlocal data are put in sender_buffer, size(M): = 0
 vlocal data are exchanged, received size(M): = 0

K-S equation was solved by genelpa2

eigenvalues were copied to ekb
              cal_dk_gamma_from_2D, NSPIN = 1
 number of non-zero elements in sender_buffer = 728
                              sender_size = 728
                       last sender_buffer = 0.00324478779373
 number of non-zero elements in receiver_buffer = 676
                            receiver_size = 676
                     last receiver_buffer = -3.12375075831e-17

 Density error is 0.0139606992387

       Energy                       Rydberg                            eV
   E_KohnSham                -15.2496896370                -207.482671794
     E_Harris                -15.2498337598                -207.484632686
      E_Fermi               -0.309909132165                -4.21653005968

 LCAO ALGORITHM --------------- ION=   4  ELEC=   5--------------------------------
 vlocal data are put in sender_buffer, size(M): = 0
 vlocal data are exchanged, received size(M): = 0

K-S equation was solved by genelpa2

eigenvalues were copied to ekb
              cal_dk_gamma_from_2D, NSPIN = 1
 number of non-zero elements in sender_buffer = 728
                              sender_size = 728
                       last sender_buffer = 0.00328553939209
 number of non-zero elements in receiver_buffer = 676
                            receiver_size = 676
                     last receiver_buffer = 1.46677505244e-16

 Density error is 0.0180988057653

       Energy                       Rydberg                            eV
   E_KohnSham                -15.2496730874                -207.482446626
     E_Harris                -15.2498882645                -207.485374260
      E_Fermi               -0.310464977904                -4.22409272893

 LCAO ALGORITHM --------------- ION=   4  ELEC=   6--------------------------------
 vlocal data are put in sender_buffer, size(M): = 0
 vlocal data are exchanged, received size(M): = 0

K-S equation was solved by genelpa2

eigenvalues were copied to ekb
              cal_dk_gamma_from_2D, NSPIN = 1
 number of non-zero elements in sender_buffer = 728
                              sender_size = 728
                       last sender_buffer = 0.00328533085176
 number of non-zero elements in receiver_buffer = 676
                            receiver_size = 676
                     last receiver_buffer = 1.23407012142e-16

 Density error is 0.00718352316812

       Energy                       Rydberg                            eV
   E_KohnSham                -15.2497212092                -207.483101357
     E_Harris                -15.2497579890                -207.483601772
      E_Fermi               -0.310757373438                -4.22807097427

 LCAO ALGORITHM --------------- ION=   4  ELEC=   7--------------------------------
 vlocal data are put in sender_buffer, size(M): = 0
 vlocal data are exchanged, received size(M): = 0

K-S equation was solved by genelpa2

eigenvalues were copied to ekb
              cal_dk_gamma_from_2D, NSPIN = 1
 number of non-zero elements in sender_buffer = 728
                              sender_size = 728
                       last sender_buffer = 0.00328120824582
 number of non-zero elements in receiver_buffer = 676
                            receiver_size = 676
                     last receiver_buffer = 3.71390203995e-17

 Density error is 0.00339462478385

       Energy                       Rydberg                            eV
   E_KohnSham                -15.2497416048                -207.483378853
     E_Harris                -15.2497465960                -207.483446762
      E_Fermi               -0.310727399967                -4.22766316428

 LCAO ALGORITHM --------------- ION=   4  ELEC=   8--------------------------------
 vlocal data are put in sender_buffer, size(M): = 0
 vlocal data are exchanged, received size(M): = 0

K-S equation was solved by genelpa2

eigenvalues were copied to ekb
              cal_dk_gamma_from_2D, NSPIN = 1
 number of non-zero elements in sender_buffer = 728
                              sender_size = 728
                       last sender_buffer = 0.00328197341183
 number of non-zero elements in receiver_buffer = 676
                            receiver_size = 676
                     last receiver_buffer = -2.74431077308e-16

 Density error is 0.000422166397919

       Energy                       Rydberg                            eV
   E_KohnSham                -15.2497434287                -207.483403668
     E_Harris                -15.2497435163                -207.483404861
      E_Fermi               -0.310723864289                -4.22761505891

 LCAO ALGORITHM --------------- ION=   4  ELEC=   9--------------------------------
 vlocal data are put in sender_buffer, size(M): = 0
[...]
                  longest orb rcut (Bohr) = 8.00
   longest nonlocal projector rcut (Bohr) = 5.01
              searching radius is (Bohr)) = 16.0
         searching radius unit is (Bohr)) = 15.0

 SETUP EXTENDED REAL SPACE GRID FOR GRID INTEGRATION
                        [real space grid] = 72, 72, 72
               [big cell numbers in grid] = 36, 36, 36
           [meshcell numbers in big cell] = 2, 2, 2
                      [extended fft grid] = 20, 20, 20
              [dimension of extened grid] = 77, 77, 77
                            UnitCellTotal = 27
              Atom number in sub-FFT-grid = 2
    Local orbitals number in sub-FFT-grid = 26
                                 lgd_last = 26
                                  lgd_now = 26
 allocate DM , the dimension is 26
        enter setAlltoallvParameter, nblk = 1
checkpoint 2
                                     pnum = 0
                                     prow = 0
                                     pcol = 0
                             nRow_in_proc = 13
                             nCol_in_proc = 7
                                     pnum = 1
                                     prow = 0
                                     pcol = 1
                             nRow_in_proc = 13
                             nCol_in_proc = 7
                                     pnum = 2
                                     prow = 0
                                     pcol = 2
                             nRow_in_proc = 13
                             nCol_in_proc = 6
                                     pnum = 3
                                     prow = 0
                                     pcol = 3
                             nRow_in_proc = 13
                             nCol_in_proc = 6
                                     pnum = 4
                                     prow = 1
                                     pcol = 0
                             nRow_in_proc = 13
                             nCol_in_proc = 7
                                     pnum = 5
                                     prow = 1
                                     pcol = 1
                             nRow_in_proc = 13
                             nCol_in_proc = 7
                                     pnum = 6
                                     prow = 1
                                     pcol = 2
                             nRow_in_proc = 13
                             nCol_in_proc = 6
                                     pnum = 7
                                     prow = 1
                                     pcol = 3
                             nRow_in_proc = 13
                             nCol_in_proc = 6
receiver_size is 676 ; receiver_size of each process is:
91 91 78 78 91 91 78 78 
sender_size is 728 ; sender_size of each process is:
91 91 91 91 91 91 91 91 
                         gamma_only_local = 1

 LCAO ALGORITHM --------------- ION=   7  ELEC=   1--------------------------------

vlocal exchange index is built
                          buffer size(M): = 0
                    buffer index size(M): = 0
 vlocal data are put in sender_buffer, size(M): = 0
 vlocal data are exchanged, received size(M): = 0

K-S equation was solved by genelpa2

eigenvalues were copied to ekb
              cal_dk_gamma_from_2D, NSPIN = 1
 number of non-zero elements in sender_buffer = 728
                              sender_size = 728
                       last sender_buffer = 0.00324
 number of non-zero elements in receiver_buffer = 676
                            receiver_size = 676
                     last receiver_buffer = 1.12e-13

 Density error is 0.0251529574029

       Energy                       Rydberg                            eV
   E_KohnSham                -15.2490456122                -207.473909387
     E_Harris                -15.2499326101                -207.485977613
      E_Fermi               -0.309768489806                -4.21461652222

 LCAO ALGORITHM --------------- ION=   7  ELEC=   2--------------------------------
 vlocal data are put in sender_buffer, size(M): = 0
 vlocal data are exchanged, received size(M): = 0

K-S equation was solved by genelpa2

eigenvalues were copied to ekb
              cal_dk_gamma_from_2D, NSPIN = 1
 number of non-zero elements in sender_buffer = 728
                              sender_size = 728
                       last sender_buffer = 0.00329138718126
 number of non-zero elements in receiver_buffer = 676
                            receiver_size = 676
                     last receiver_buffer = -2.06402207142e-13

 Density error is 0.0744755202711

       Energy                       Rydberg                            eV
   E_KohnSham                -15.2484046337                -207.465188428
     E_Harris                -15.2511944530                -207.503145866
      E_Fermi               -0.311372758880                -4.23644372275

 LCAO ALGORITHM --------------- ION=   7  ELEC=   3--------------------------------
 vlocal data are put in sender_buffer, size(M): = 0
 vlocal data are exchanged, received size(M): = 0

K-S equation was solved by genelpa2

eigenvalues were copied to ekb
              cal_dk_gamma_from_2D, NSPIN = 1
 number of non-zero elements in sender_buffer = 728
                              sender_size = 728
                       last sender_buffer = 0.00327679870498
 number of non-zero elements in receiver_buffer = 676
                            receiver_size = 676
                     last receiver_buffer = -5.89082398523e-14

 Density error is 0.00266959165296

       Energy                       Rydberg                            eV
   E_KohnSham                -15.2497439706                -207.483411041
     E_Harris                -15.2497463845                -207.483443884
      E_Fermi               -0.310978430472                -4.23107860951

 LCAO ALGORITHM --------------- ION=   7  ELEC=   4--------------------------------
 vlocal data are put in sender_buffer, size(M): = 0
 vlocal data are exchanged, received size(M): = 0

K-S equation was solved by genelpa2

eigenvalues were copied to ekb
              cal_dk_gamma_from_2D, NSPIN = 1
 number of non-zero elements in sender_buffer = 728
                              sender_size = 728
                       last sender_buffer = 0.00327121507905
 number of non-zero elements in receiver_buffer = 676
                            receiver_size = 676
                     last receiver_buffer = 1.34098152761e-13

 Density error is 0.00124043330483

       Energy                       Rydberg                            eV
   E_KohnSham                -15.2497429102                -207.483396614
     E_Harris                -15.2497468604                -207.483450359
      E_Fermi               -0.310884639014                -4.22980251127

 LCAO ALGORITHM --------------- ION=   7  ELEC=   5--------------------------------
 vlocal data are put in sender_buffer, size(M): = 0
 vlocal data are exchanged, received size(M): = 0

K-S equation was solved by genelpa2

eigenvalues were copied to ekb
              cal_dk_gamma_from_2D, NSPIN = 1
 number of non-zero elements in sender_buffer = 728
                              sender_size = 728
                       last sender_buffer = 0.00327547837196
 number of non-zero elements in receiver_buffer = 676
                            receiver_size = 676
                     last receiver_buffer = -2.01522313776e-14

 Density error is 0.000589388243590

       Energy                       Rydberg                            eV
   E_KohnSham                -15.2497449783                -207.483424752
     E_Harris                -15.2497456476                -207.483433858
      E_Fermi               -0.310915068827                -4.23021653010

 LCAO ALGORITHM --------------- ION=   7  ELEC=   6--------------------------------
 vlocal data are put in sender_buffer, size(M): = 0
 vlocal data are exchanged, received size(M): = 0

K-S equation was solved by genelpa2

eigenvalues were copied to ekb
              cal_dk_gamma_from_2D, NSPIN = 1
 number of non-zero elements in sender_buffer = 728
                              sender_size = 728
                       last sender_buffer = 0.00327603534302
 number of non-zero elements in receiver_buffer = 676
                            receiver_size = 676
                     last receiver_buffer = -4.05122236893e-14

 Density error is 0.000166734063884

       Energy                       Rydberg                            eV
   E_KohnSham                -15.2497452787                -207.483428838
     E_Harris                -15.2497452940                -207.483429047
      E_Fermi               -0.310948879448                -4.23067654721

 LCAO ALGORITHM --------------- ION=   7  ELEC=   7--------------------------------
 vlocal data are put in sender_buffer, size(M): = 0
 vlocal data are exchanged, received size(M): = 0

K-S equation was solved by genelpa2

eigenvalues were copied to ekb
              cal_dk_gamma_from_2D, NSPIN = 1
 number of non-zero elements in sender_buffer = 728
                              sender_size = 728
                       last sender_buffer = 0.00327567247989
 number of non-zero elements in receiver_buffer = 676
                            receiver_size = 676
                     last receiver_buffer = 6.02904477441e-14

 Density error is 5.81636601644e-06

       Energy                       Rydberg                            eV
   E_KohnSham                -15.2497452824                -207.483428889
     E_Harris                -15.2497452824                -207.483428890
      E_Fermi               -0.310941611443                -4.23057766092

 LCAO ALGORITHM --------------- ION=   7  ELEC=   8--------------------------------
 vlocal data are put in sender_buffer, size(M): = 0
 vlocal data are exchanged, received size(M): = 0

K-S equation was solved by genelpa2

eigenvalues were copied to ekb
              cal_dk_gamma_from_2D, NSPIN = 1
 number of non-zero elements in sender_buffer = 728
                              sender_size = 728
                       last sender_buffer = 0.00327567042413
 number of non-zero elements in receiver_buffer = 676
                            receiver_size = 676
                     last receiver_buffer = -1.10161287346e-13

 Density error is 1.14501013391e-06

       Energy                       Rydberg                            eV
   E_KohnSham                -15.2497452825                -207.483428890
     E_Harris                -15.2497452825                -207.483428890
      E_Fermi               -0.310941622126                -4.23057780628

 LCAO ALGORITHM --------------- ION=   7  ELEC=   9--------------------------------
 vlocal data are put in sender_buffer, size(M): = 0
 vlocal data are exchanged, received size(M): = 0

K-S equation was solved by genelpa2

eigenvalues were copied to ekb
              cal_dk_gamma_from_2D, NSPIN = 1
 number of non-zero elements in sender_buffer = 728
                              sender_size = 728
                       last sender_buffer = 0.00327567143611
 number of non-zero elements in receiver_buffer = 676
                            receiver_size = 676
                     last receiver_buffer = 2.31502142212e-13

 Density error is 4.33256818097e-08

       Energy                       Rydberg                            eV
   E_KohnSham                -15.2497452824                -207.483428889
     E_Harris                -15.2497452824                -207.483428889
      E_Fermi               -0.310941637768                -4.23057801910

 LCAO ALGORITHM --------------- ION=   7  ELEC=  10--------------------------------
 vlocal data are put in sender_buffer, size(M): = 0
 vlocal data are exchanged, received size(M): = 0

K-S equation was solved by genelpa2

eigenvalues were copied to ekb
              cal_dk_gamma_from_2D, NSPIN = 1
 number of non-zero elements in sender_buffer = 728
                              sender_size = 728
                       last sender_buffer = 0.00327567156850
 number of non-zero elements in receiver_buffer = 676
                            receiver_size = 676
                     last receiver_buffer = -4.63215970012e-13

 Density error is 8.62393113049e-09

       Energy                       Rydberg                            eV
   E_KohnSham                -15.2497452824                -207.483428890
     E_Harris                -15.2497452824                -207.483428890
      E_Fermi               -0.310941637930                -4.23057802131

 LCAO ALGORITHM --------------- ION=   7  ELEC=  11--------------------------------
 vlocal data are put in sender_buffer, size(M): = 0
 vlocal data are exchanged, received size(M): = 0

K-S equation was solved by genelpa2

eigenvalues were copied to ekb
              cal_dk_gamma_from_2D, NSPIN = 1
 number of non-zero elements in sender_buffer = 728
                              sender_size = 728
                       last sender_buffer = 0.00327567156970
 number of non-zero elements in receiver_buffer = 676
                            receiver_size = 676
                     last receiver_buffer = 9.53049272832e-13

 Density error is 8.96596456831e-10

       Energy                       Rydberg                            eV
   E_KohnSham                -15.2497452824                -207.483428890
     E_Harris                -15.2497452824                -207.483428890
       E_band                -4.10176802285                -55.8074169849
   E_one_elec                -15.0331249489                -204.536158051
    E_Hartree                +8.16908882430                +111.146155479
         E_xc                -4.14884277732                -56.4479018777
      E_Ewald                -4.22181818169                -57.4407831910
      E_demet              -0.0150481987985               -0.204741248296
      E_descf                +0.00000000000                +0.00000000000
     E_efield                +0.00000000000                +0.00000000000
        E_exx                +0.00000000000                +0.00000000000
      E_Fermi               -0.310941637839                -4.23057802006

 charge density convergence is achieved
 final etot is -207.483428890 eV

 STATE ENERGY(eV) AND OCCUPATIONS    NSPIN == 1
 1/1 kpoint (Cartesian) = 0.0000 0.0000 0.0000 (2500 pws)
       1       -11.5484        2.00000
       2       -7.80358        2.00000
       3       -4.30446        1.55749
       4       -4.25761        1.22126
       5       -4.25761        1.22126
       6       -1.46189        0.00000
       7       -1.46189        0.00000
       8        2.75625        0.00000

 EFERMI = -4.230578020063847 eV
 OUT.ABACUS/ final etot is -207.4834288898963 eV
 correction force for each atom along direction 1 is 7.50370e-05
 correction force for each atom along direction 2 is -7.39346e-15
 correction force for each atom along direction 3 is -5.12018e-10

 ><><><><><><><><><><><><><><><><><><><><><><

    TOTAL-FORCE (eV/Angstrom)

 ><><><><><><><><><><><><><><><><><><><><><><

     atom              x              y              z
      Si1 -0.00014156919              0              0
      Si2 +0.00014156919              0              0

 Ion relaxation is converged!

 Energy difference (Ry) = 0.00021293636

 Largest gradient is (eV/A) = 0.00014156919
 end of geometry optimization
                                    istep = 7
                         update iteration = 1

 CARTESIAN COORDINATES ( UNIT = 15.000000 Bohr ).
         atom                   x                   y                   z                 mag                  vx                  vy                  vz
     tauc_Si1       0.00000000000       0.00000000000       0.00000000000       0.00000000000       0.00000000000       0.00000000000       0.00000000000
     tauc_Si2      0.285391776179       0.00000000000       0.00000000000       0.00000000000       0.00000000000       0.00000000000       0.00000000000



 --------------------------------------------
 !FINAL_ETOT_IS -207.4834288898963 eV
 --------------------------------------------






  |CLASS_NAME---------|NAME---------------|TIME(Sec)-----|CALLS----|AVG------|PER%-------
                                      total         13.811        11       1.3   1.0e+02%
               Run_lcao           lcao_line         13.793         1       14.    1.e+02%
              Potential            init_pot        0.11808        14    0.0084      0.86%
               PW_Basis          recip2real        0.14436       128    0.0011       1.0%
              Potential            v_of_rho        0.51716       101    0.0051       3.7%
          XC_Functional                v_xc        0.24649       108    0.0023       1.8%
           H_Hartree_pw           v_hartree        0.27210       101    0.0027       2.0%
               PW_Basis          real2recip        0.29810       296    0.0010       2.2%
               PW_Basis    gatherp_scatters        0.12706       296   0.00043      0.92%
            ORB_control      set_orb_tables        0.74542         1      0.75       5.4%
         ORB_gen_tables          gen_tables        0.74542         1      0.75       5.4%
          ORB_table_phi          init_Table        0.51089         1      0.51       3.7%
          ORB_table_phi      cal_ST_Phi12_R        0.50584        70    0.0072       3.7%
              LOOP_ions            opt_ions         12.879         1       13.       93.%
        ESolver_KS_LCAO                 Run         11.107         7       1.6       80.%
        ESolver_KS_LCAO           beforescf        0.21943         7     0.031       1.6%
        ESolver_KS_LCAO        beforesolver         5.5259         4       1.4       40.%
        ESolver_KS_LCAO     set_matrix_grid        0.20695         7     0.030       1.5%
         Grid_Technique                init        0.20596         7     0.029       1.5%
           Grid_BigCellgrid_expansion_index        0.12481        14    0.0089      0.90%
            HSolverLCAO               solve         9.7238        87      0.11       70.%
             HamiltLCAO            updateHk         4.2803        87     0.049       31.%
            LCAO_Hamilt          cal_Hgamma         4.2662        87     0.049       31.%
         Gint_interface            cal_gint         10.973       181     0.061       79.%
             Gint_Gamma           distri_vl         6.2504        44      0.14       45.%
              DiagoElpa          elpa_solve        0.14884        87    0.0017       1.1%
          ElecStateLCAO            psiToRho         5.2917        87     0.061       38.%
                 Charge             mix_rho        0.40745        80    0.0051       3.0%
              LOOP_ions        force_stress         1.7703         7      0.25       13.%
      Force_Stress_LCAO      getForceStress         1.6373         7      0.23       12.%
       Force_LCAO_gamma        ftable_gamma         1.5429         7      0.22       11.%
       Force_LCAO_gamma        cal_fvl_dphi         1.5152         7      0.22       11.%
 ----------------------------------------------------------------------------------------

 CLASS_NAME---------|NAME---------------|MEMORY(MB)--------
                                         308.1
        ORB_table_phi               Jl(x)          97.80
         Charge_Pulay                Rrho          3.164
         Charge_Pulay               dRrho          2.769
         Charge_Pulay                drho          2.769
        Grid_Meshcell        index2normal          1.742
        Grid_Meshcell         index2ucell          1.742
        ORB_table_phi         Table_SR&TR          1.225
 ----------------------------------------------------------

 Start  Time  : Tue Jul  5 15:20:21 2022
 Finish Time  : Tue Jul  5 15:20:35 2022
 Total  Time  : 0 h 0 mins 14 secs 
