                                                                                     
                             WELCOME TO ABACUS                                       
                                                                                     
               'Atomic-orbital Based Ab-initio Computation at UStc'                  
                                                                                     
                     Website: http://abacus.ustc.edu.cn/                             
                                                                                     
    Version: Parallel, in development
    Processor Number is 8
    Start Time is Tue Jul  5 15:20:21 2022
                                                                                     
 ------------------------------------------------------------------------------------

 READING GENERAL INFORMATION
                           global_out_dir = OUT.ABACUS/
                           global_in_card = INPUT
                               pseudo_dir = 
                              orbital_dir = 
                              pseudo_type = auto
                                    DRANK = 1
                                    DSIZE = 8
                                   DCOLOR = 1
                                    GRANK = 1
                                    GSIZE = 1




 >>>>>>>>>>>>>>>>>>>>>>>>>>>>>>>>>>>>>>>>>>>>>>>>>>>>>>>>>>>>>>>>>>>>>>
 |                                                                    |
 | Reading atom information in unitcell:                              |
 | From the input file and the structure file we know the number of   |
 | different elments in this unitcell, then we list the detail        |
 | information for each element, especially the zeta and polar atomic |
 | orbital number for each element. The total atom number is counted. |
 | We calculate the nearest atom distance for each atom and show the  |
 | Cartesian and Direct coordinates for each atom. We list the file   |
 | address for atomic orbitals. The volume and the lattice vectors    |
 | in real and reciprocal space is also shown.                        |
 |                                                                    |
 <<<<<<<<<<<<<<<<<<<<<<<<<<<<<<<<<<<<<<<<<<<<<<<<<<<<<<<<<<<<<<<<<<<<<<




 READING UNITCELL INFORMATION
                                    ntype = 1
                 atom label for species 1 = Si
                  lattice constant (Bohr) = 10.2
              lattice constant (Angstrom) = 5.39761

 READING ATOM TYPE 1
                               atom label = Si
                      L=0, number of zeta = 2
                      L=1, number of zeta = 2
                      L=2, number of zeta = 1
             number of atom for this type = 2
                      start magnetization = FALSE
                      start magnetization = FALSE

                        TOTAL ATOM NUMBER = 2

 CARTESIAN COORDINATES ( UNIT = 10.2 Bohr ).
         atom                   x                   y                   z                 mag                  vx                  vy                  vz
     tauc_Si1                   0                   0                   0                   0                   0                   0                   0
     tauc_Si2                0.25                0.25                0.25                   0                   0                   0                   0


 READING ORBITAL FILE NAMES FOR LCAO
 orbital file: ./Si_lda_8.0au_50Ry_2s2p1d

                          Volume (Bohr^3) = 265.302
                             Volume (A^3) = 39.3136533177

 Lattice vectors: (Cartesian coordinate: in unit of a_0)
                 +0.5                +0.5                  +0
                 +0.5                  +0                +0.5
                   +0                +0.5                +0.5
 Reciprocal vectors: (Cartesian coordinate: in unit of 2 pi/a_0)
                   +1                  +1                  -1
                   +1                  -1                  +1
                   -1                  +1                  +1




 >>>>>>>>>>>>>>>>>>>>>>>>>>>>>>>>>>>>>>>>>>>>>>>>>>>>>>>>>>>>>>>>>>>>>>
 |                                                                    |
 | Reading pseudopotentials files:                                    |
 | The pseudopotential file is in UPF format. The 'NC' indicates that |
 | the type of pseudopotential is 'norm conserving'. Functional of    |
 | exchange and correlation is decided by 4 given parameters in UPF   |
 | file.  We also read in the 'core correction' if there exists.      |
 | Also we can read the valence electrons number and the maximal      |
 | angular momentum used in this pseudopotential. We also read in the |
 | trail wave function, trail atomic density and local-pseudopotential|
 | on logrithmic grid. The non-local pseudopotential projector is also|
 | read in if there is any.                                           |
 |                                                                    |
 <<<<<<<<<<<<<<<<<<<<<<<<<<<<<<<<<<<<<<<<<<<<<<<<<<<<<<<<<<<<<<<<<<<<<<




                PAO radial cut off (Bohr) = 15

 Read in pseudopotential file is Si.pz-vbc.UPF
                     pseudopotential type = NC
          exchange-correlation functional = PZ
                 nonlocal core correction = 0
                        valence electrons = 4
                                     lmax = 1
                           number of zeta = 2
                     number of projectors = 2
                           L of projector = 0
                           L of projector = 1
     initial pseudo atomic orbital number = 8
                                   NLOCAL = 26




 >>>>>>>>>>>>>>>>>>>>>>>>>>>>>>>>>>>>>>>>>>>>>>>>>>>>>>>>>>>>>>>>>>>>>>
 |                                                                    |
 | Setup plane waves of charge/potential:                             |
 | Use the energy cutoff and the lattice vectors to generate the      |
 | dimensions of FFT grid. The number of FFT grid on each processor   |
 | is 'nrxx'. The number of plane wave basis in reciprocal space is   |
 | different for charege/potential and wave functions. We also set    |
 | the 'sticks' for the parallel of FFT. The number of plane waves    |
 | is 'npw' in each processor.                                        |
 <<<<<<<<<<<<<<<<<<<<<<<<<<<<<<<<<<<<<<<<<<<<<<<<<<<<<<<<<<<<<<<<<<<<<<





 SETUP THE PLANE WAVE BASIS
 energy cutoff for charge/potential (unit:Ry) = 200
          [fft grid for charge/potential] = 36, 36, 36
                      [fft grid division] = 2, 2, 2
      [big fft grid for charge/potential] = 18, 18, 18
                                     nbxx = 972
                                     nrxx = 7776

 SETUP PLANE WAVES FOR CHARGE/POTENTIAL
                    number of plane waves = 12627
                         number of sticks = 721

 PARALLEL PW FOR CHARGE/POTENTIAL
     PROC   COLUMNS(POT)             PW
        1             90           1579
        2             90           1579
        3             90           1578
        4             90           1578
        5             91           1579
        6             90           1578
        7             90           1578
        8             90           1578
 --------------- sum -------------------
        8            721          12627
                            number of |g| = 176
                                  max |g| = 524
                                  min |g| = 3

 SETUP THE ELECTRONS NUMBER
            electron number of element Si = 4
      total electron number of element Si = 8
                           occupied bands = 4
                                   NLOCAL = 26
                                   NBANDS = 8
                                   NBANDS = 8
 DONE : SETUP UNITCELL Time : 0.0376229286194 (SEC)





 >>>>>>>>>>>>>>>>>>>>>>>>>>>>>>>>>>>>>>>>>>>>>>>>>>>>>>>>>>>>>>>>>>>>>>
 |                                                                    |
 | Setup K-points                                                     |
 | We setup the k-points according to input parameters.               |
 | The reduced k-points are set according to symmetry operations.     |
 | We treat the spin as another set of k-points.                      |
 |                                                                    |
 <<<<<<<<<<<<<<<<<<<<<<<<<<<<<<<<<<<<<<<<<<<<<<<<<<<<<<<<<<<<<<<<<<<<<<





 SETUP K-POINTS
                                    nspin = 1
                   Input type of k points = Monkhorst-Pack(Gamma)
is_mp : 1
                                   nkstot = 64
                               nkstot_ibz = 36
      IBZ             DirectX             DirectY             DirectZ              Weight    ibz2bz
        1                   0                   0                   0            0.015625         0
        2                0.75                   0                   0             0.03125         1
        3                 0.5                   0                   0            0.015625         2
        4                   0                0.75                   0             0.03125         4
        5                0.75                0.75                   0             0.03125         5
        6                 0.5                0.75                   0             0.03125         6
        7                0.25                0.75                   0             0.03125         7
        8                   0                 0.5                   0            0.015625         8
        9                0.75                 0.5                   0             0.03125         9
       10                 0.5                 0.5                   0            0.015625        10
       11                   0                   0                0.75             0.03125        16
       12                0.75                   0                0.75             0.03125        17
       13                 0.5                   0                0.75             0.03125        18
       14                0.25                   0                0.75             0.03125        19
       15                   0                0.75                0.75             0.03125        20
       16                0.75                0.75                0.75             0.03125        21
       17                 0.5                0.75                0.75             0.03125        22
       18                0.25                0.75                0.75             0.03125        23
       19                   0                 0.5                0.75             0.03125        24
       20                0.75                 0.5                0.75             0.03125        25
       21                 0.5                 0.5                0.75             0.03125        26
       22                0.25                 0.5                0.75             0.03125        27
       23                   0                0.25                0.75             0.03125        28
       24                0.75                0.25                0.75             0.03125        29
       25                 0.5                0.25                0.75             0.03125        30
       26                0.25                0.25                0.75             0.03125        31
       27                   0                   0                 0.5            0.015625        32
       28                0.75                   0                 0.5             0.03125        33
       29                 0.5                   0                 0.5            0.015625        34
       30                   0                0.75                 0.5             0.03125        36
       31                0.75                0.75                 0.5             0.03125        37
       32                 0.5                0.75                 0.5             0.03125        38
       33                0.25                0.75                 0.5             0.03125        39
       34                   0                 0.5                 0.5            0.015625        40
       35                0.75                 0.5                 0.5             0.03125        41
       36                 0.5                 0.5                 0.5            0.015625        42
                               nkstot now = 36

  KPOINTS            DIRECT_X            DIRECT_Y            DIRECT_Z              WEIGHT
        1                   0                   0                   0            0.015625
        2                0.75                   0                   0             0.03125
        3                 0.5                   0                   0            0.015625
        4                   0                0.75                   0             0.03125
        5                0.75                0.75                   0             0.03125
        6                 0.5                0.75                   0             0.03125
        7                0.25                0.75                   0             0.03125
        8                   0                 0.5                   0            0.015625
        9                0.75                 0.5                   0             0.03125
       10                 0.5                 0.5                   0            0.015625
       11                   0                   0                0.75             0.03125
       12                0.75                   0                0.75             0.03125
       13                 0.5                   0                0.75             0.03125
       14                0.25                   0                0.75             0.03125
       15                   0                0.75                0.75             0.03125
       16                0.75                0.75                0.75             0.03125
       17                 0.5                0.75                0.75             0.03125
       18                0.25                0.75                0.75             0.03125
       19                   0                 0.5                0.75             0.03125
       20                0.75                 0.5                0.75             0.03125
       21                 0.5                 0.5                0.75             0.03125
       22                0.25                 0.5                0.75             0.03125
       23                   0                0.25                0.75             0.03125
       24                0.75                0.25                0.75             0.03125
       25                 0.5                0.25                0.75             0.03125
       26                0.25                0.25                0.75             0.03125
       27                   0                   0                 0.5            0.015625
       28                0.75                   0                 0.5             0.03125
       29                 0.5                   0                 0.5            0.015625
       30                   0                0.75                 0.5             0.03125
       31                0.75                0.75                 0.5             0.03125
       32                 0.5                0.75                 0.5             0.03125
       33                0.25                0.75                 0.5             0.03125
       34                   0                 0.5                 0.5            0.015625
       35                0.75                 0.5                 0.5             0.03125
       36                 0.5                 0.5                 0.5            0.015625

           k-point number in this process = 36
       minimum distributed K point number = 36

  KPOINTS         CARTESIAN_X         CARTESIAN_Y         CARTESIAN_Z              WEIGHT
        1                   0                   0                   0             0.03125
        2                0.75                0.75               -0.75              0.0625
        3                 0.5                 0.5                -0.5             0.03125
        4                0.75               -0.75                0.75              0.0625
        5                 1.5                   0                   0              0.0625
        6                1.25               -0.25                0.25              0.0625
        7                   1                -0.5                 0.5              0.0625
        8                 0.5                -0.5                 0.5             0.03125
        9                1.25                0.25               -0.25              0.0625
       10                   1                   0                   0             0.03125
       11               -0.75                0.75                0.75              0.0625
       12                   0                 1.5                   0              0.0625
       13               -0.25                1.25                0.25              0.0625
       14                -0.5                   1                 0.5              0.0625
       15                   0                   0                 1.5              0.0625
       16                0.75                0.75                0.75              0.0625
       17                 0.5                 0.5                   1              0.0625
       18                0.25                0.25                1.25              0.0625
       19               -0.25                0.25                1.25              0.0625
       20                 0.5                   1                 0.5              0.0625
       21                0.25                0.75                0.75              0.0625
       22                   0                 0.5                   1              0.0625
       23                -0.5                 0.5                   1              0.0625
       24                0.25                1.25                0.25              0.0625
       25                   0                   1                 0.5              0.0625
       26               -0.25                0.75                0.75              0.0625
       27                -0.5                 0.5                 0.5             0.03125
       28                0.25                1.25               -0.25              0.0625
       29                   0                   1                   0             0.03125
       30                0.25               -0.25                1.25              0.0625
       31                   1                 0.5                 0.5              0.0625
       32                0.75                0.25                0.75              0.0625
       33                 0.5                   0                   1              0.0625
       34                   0                   0                   1             0.03125
       35                0.75                0.75                0.25              0.0625
       36                 0.5                 0.5                 0.5             0.03125

  KPOINTS            DIRECT_X            DIRECT_Y            DIRECT_Z              WEIGHT
        1                   0                   0                   0             0.03125
        2                0.75                   0                   0              0.0625
        3                 0.5                   0                   0             0.03125
        4                   0                0.75                   0              0.0625
        5                0.75                0.75                   0              0.0625
        6                 0.5                0.75                   0              0.0625
        7                0.25                0.75                   0              0.0625
        8                   0                 0.5                   0             0.03125
        9                0.75                 0.5                   0              0.0625
       10                 0.5                 0.5                   0             0.03125
       11                   0                   0                0.75              0.0625
       12                0.75                   0                0.75              0.0625
       13                 0.5                   0                0.75              0.0625
       14                0.25                   0                0.75              0.0625
       15                   0                0.75                0.75              0.0625
       16                0.75                0.75                0.75              0.0625
       17                 0.5                0.75                0.75              0.0625
       18                0.25                0.75                0.75              0.0625
       19                   0                 0.5                0.75              0.0625
       20                0.75                 0.5                0.75              0.0625
       21                 0.5                 0.5                0.75              0.0625
       22                0.25                 0.5                0.75              0.0625
       23                   0                0.25                0.75              0.0625
       24                0.75                0.25                0.75              0.0625
       25                 0.5                0.25                0.75              0.0625
       26                0.25                0.25                0.75              0.0625
       27                   0                   0                 0.5             0.03125
       28                0.75                   0                 0.5              0.0625
       29                 0.5                   0                 0.5             0.03125
       30                   0                0.75                 0.5              0.0625
       31                0.75                0.75                 0.5              0.0625
       32                 0.5                0.75                 0.5              0.0625
       33                0.25                0.75                 0.5              0.0625
       34                   0                 0.5                 0.5             0.03125
       35                0.75                 0.5                 0.5              0.0625
       36                 0.5                 0.5                 0.5             0.03125
 DONE : INIT K-POINTS Time : 0.0397570133209 (SEC)





 >>>>>>>>>>>>>>>>>>>>>>>>>>>>>>>>>>>>>>>>>>>>>>>>>>>>>>>>>>>>>>>>>>>>>>
 |                                                                    |
 | Setup plane waves of wave functions:                               |
 | Use the energy cutoff and the lattice vectors to generate the      |
 | dimensions of FFT grid. The number of FFT grid on each processor   |
 | is 'nrxx'. The number of plane wave basis in reciprocal space is   |
 | different for charege/potential and wave functions. We also set    |
 | the 'sticks' for the parallel of FFT. The number of plane wave of  |
 | each k-point is 'npwk[ik]' in each processor                       |
 <<<<<<<<<<<<<<<<<<<<<<<<<<<<<<<<<<<<<<<<<<<<<<<<<<<<<<<<<<<<<<<<<<<<<<





 SETUP PLANE WAVES FOR WAVE FUNCTIONS
     energy cutoff for wavefunc (unit:Ry) = 50
            [fft grid for wave functions] = 36, 36, 36
                    number of plane waves = 2277
                         number of sticks = 235

 PARALLEL PW FOR WAVE FUNCTIONS
     PROC   COLUMNS(POT)             PW
        1             30            285
        2             30            285
        3             30            285
        4             29            284
        5             29            284
        6             29            284
        7             29            285
        8             29            285
 --------------- sum -------------------
        8            235           2277
 DONE : INIT PLANEWAVE Time : 0.0457539558411 (SEC)

 DONE : INIT CHARGE Time : 0.0462238788605 (SEC)

                                 init_chg = atomic
 DONE : INIT POTENTIAL Time : 0.0605741 (SEC)





 >>>>>>>>>>>>>>>>>>>>>>>>>>>>>>>>>>>>>>>>>>>>>>>>>>>>>>>>>>>>>>>>>>>>>>
 |                                                                    |
 | Setup numerical orbitals:                                          |
 | This part setup: numerical atomic orbitals, non-local projectors   |
 | and neutral potential (1D). The atomic orbitals information        |
 | including the radius, angular momentum and zeta number.            |
 | The neutral potential is the sum of local part of pseudopotential  |
 | and potential given by atomic charge, they will cancel out beyond  |
 | a certain radius cutoff, because the Z/r character.                |
 |                                                                    |
 <<<<<<<<<<<<<<<<<<<<<<<<<<<<<<<<<<<<<<<<<<<<<<<<<<<<<<<<<<<<<<<<<<<<<<





 SETUP ONE DIMENSIONAL ORBITALS/POTENTIAL
                        delta k  (1/Bohr) = 0.01
                        delta r    (Bohr) = 0.01
                        dr_uniform (Bohr) = 0.001
                        rmax       (Bohr) = 30
                                    kmesh = 711
      ORBITAL  L  N      nr      dr    RCUT  CHECK_UNIT    NEW_UNIT
            1  0  0     801    0.01       8           1           1
            2  0  1     801    0.01       8           1           1
            3  1  0     801    0.01       8           1           1
            4  1  1     801    0.01       8           1           1
            5  2  0     801    0.01       8           1           1
 SET NONLOCAL PSEUDOPOTENTIAL PROJECTORS
 max number of nonlocal projetors among all species is 2

 SETUP THE TWO-CENTER INTEGRATION TABLES

 SETUP THE DIVISION OF H/S MATRIX
 divide the H&S matrix using 2D block algorithms.
                                     nb2d = 1
                  trace_loc_row dimension = 26
                  trace_loc_col dimension = 26
                                     nloc = 91

 -------------------------------------------
 SELF-CONSISTENT
 -------------------------------------------




 >>>>>>>>>>>>>>>>>>>>>>>>>>>>>>>>>>>>>>>>>>>>>>>>>>>>>>>>>>>>>>>>>>>>>>
 |                                                                    |
 | Search adjacent atoms:                                             |
 | Set the adjacent atoms for each atom and set the periodic boundary |
 | condition for the atoms on real space FFT grid. For k-dependent    |
 | algorithm, we also need to set the sparse H and S matrix element   |
 | for each atom.                                                     |
 |                                                                    |
 <<<<<<<<<<<<<<<<<<<<<<<<<<<<<<<<<<<<<<<<<<<<<<<<<<<<<<<<<<<<<<<<<<<<<<





 SETUP SEARCHING RADIUS FOR PROGRAM TO SEARCH ADJACENT ATOMS
                  longest orb rcut (Bohr) = 8
   longest nonlocal projector rcut (Bohr) = 5.01
              searching radius is (Bohr)) = 26
         searching radius unit is (Bohr)) = 10.2

 SETUP EXTENDED REAL SPACE GRID FOR GRID INTEGRATION
                        [real space grid] = 36, 36, 36
               [big cell numbers in grid] = 18, 18, 18
           [meshcell numbers in big cell] = 2, 2, 2
                      [extended fft grid] = 25, 25, 25
              [dimension of extened grid] = 69, 69, 69
                            UnitCellTotal = 125
              Atom number in sub-FFT-grid = 2
    Local orbitals number in sub-FFT-grid = 26
                                ParaV.nnr = 20634
                                     nnrg = 41574
                                nnrg_last = 0
                                 nnrg_now = 41574

 LCAO ALGORITHM --------------- ION=   1  ELEC=   1--------------------------------
 Memory of pvpR : 0.317 MB

 Density error is 0.165162992955

       Energy                       Rydberg                            eV
   E_KohnSham                -15.7189057263                -213.866684203
     E_Harris                -15.7417296985                -214.177220275
      E_Fermi                +0.43350622649                +5.89815479874

 LCAO ALGORITHM --------------- ION=   1  ELEC=   2--------------------------------
 Memory of pvpR : 0.317184448242 MB

 Density error is 0.0347961380823

       Energy                       Rydberg                            eV
   E_KohnSham                -15.7224771828                -213.915276361
     E_Harris                -15.7226090945                -213.917071111
      E_Fermi               +0.477940854505                +6.50271892826

 LCAO ALGORITHM --------------- ION=   1  ELEC=   3--------------------------------
 Memory of pvpR : 0.317184448242 MB

 Density error is 0.00413061496045

       Energy                       Rydberg                            eV
   E_KohnSham                -15.7225389738                -213.916117071
     E_Harris                -15.7225388086                -213.916114823
      E_Fermi               +0.484463352604                +6.59146206759

 LCAO ALGORITHM --------------- ION=   1  ELEC=   4--------------------------------
 Memory of pvpR : 0.317184448242 MB

 Density error is 4.85865709931e-05

       Energy                       Rydberg                            eV
   E_KohnSham                -15.7225397465                -213.916127584
     E_Harris                -15.7225397444                -213.916127555
      E_Fermi               +0.484028350125                +6.58554355524

 LCAO ALGORITHM --------------- ION=   1  ELEC=   5--------------------------------
 Memory of pvpR : 0.317184448242 MB

 Density error is 6.05880252989e-06

       Energy                       Rydberg                            eV
   E_KohnSham                -15.7225397443                -213.916127555
     E_Harris                -15.7225397444                -213.916127555
      E_Fermi               +0.484037654802                +6.58567015187

 LCAO ALGORITHM --------------- ION=   1  ELEC=   6--------------------------------
 Memory of pvpR : 0.317184448242 MB

 Density error is 1.60845205059e-07

       Energy                       Rydberg                            eV
   E_KohnSham                -15.7225397446                -213.916127558
     E_Harris                -15.7225397446                -213.916127558
      E_Fermi               +0.484036431737                +6.58565351121

 LCAO ALGORITHM --------------- ION=   1  ELEC=   7--------------------------------
 Memory of pvpR : 0.317184448242 MB

 Density error is 7.78907056694e-10

       Energy                       Rydberg                            eV
   E_KohnSham                -15.7225397446                -213.916127558
     E_Harris                -15.7225397446                -213.916127558
       E_band               +0.835412600107                +11.3663715425
   E_one_elec                +4.87091916093                 +66.272255086
    E_Hartree                 +1.1219426667                +15.2648130964
         E_xc                -4.81564296372                -65.5201838402
      E_Ewald                -16.8997586085                  -229.9330119
      E_demet                            +0                            +0
      E_descf                            +0                            +0
     E_efield                            +0                            +0
        E_exx                            +0                            +0
      E_Fermi               +0.484036464135                +6.58565395201

 charge density convergence is achieved
 final etot is -213.916127558 eV

 STATE ENERGY(eV) AND OCCUPATIONS    NSPIN == 1
 1/36 kpoint (Cartesian) = 0 0 0 (198 pws)
       1       -5.39094      0.0312500
       2        6.58565      0.0312500
       3        6.58565      0.0312500
       4        6.58565      0.0312500
       5        9.25834        0.00000
       6        9.25834        0.00000
       7        9.25834        0.00000
       8        10.1982        0.00000

 2/36 kpoint (Cartesian) = 0.750000 0.750000 -0.750000 (208 pws)
       1       -4.60359      0.0625000
       2        2.52518      0.0625000
       3        5.73823      0.0625000
       4        5.73823      0.0625000
       5        8.74658        0.00000
       6        10.3609        0.00000
       7        10.3609        0.00000
       8        13.8368        0.00000

 3/36 kpoint (Cartesian) = 0.500000 0.500000 -0.500000 (205 pws)
       1       -3.01547      0.0312500
       2      -0.627449      0.0312500
       3        5.24336      0.0312500
       4        5.24336      0.0312500
       5        8.25279        0.00000
       6        10.3493        0.00000
       7        10.3493        0.00000
       8        17.0430        0.00000

 4/36 kpoint (Cartesian) = 0.750000 -0.750000 0.750000 (188 pws)
       1       -4.60359      0.0625000
       2        2.52518      0.0625000
       3        5.73823      0.0625000
       4        5.73823      0.0625000
       5        8.74658        0.00000
       6        10.3609        0.00000
       7        10.3609        0.00000
       8        13.8368        0.00000

 5/36 kpoint (Cartesian) = 1.50000 0.00000 0.00000 (198 pws)
       1       -4.32308      0.0625000
       2        3.06875      0.0625000
       3        4.51800      0.0625000
       4        4.51800      0.0625000
       5        7.70984        0.00000
       6        10.5801        0.00000
       7        12.7164        0.00000
       8        12.7164        0.00000

 6/36 kpoint (Cartesian) = 1.25000 -0.250000 0.250000 (195 pws)
       1       -2.65582      0.0625000
       2       0.121686      0.0625000
       3        2.78846      0.0625000
       4        4.17361      0.0625000
       5        8.28496        0.00000
       6        11.6477        0.00000
       7        12.7239        0.00000
       8        13.1187        0.00000

 7/36 kpoint (Cartesian) = 1.00000 -0.500000 0.500000 (191 pws)
       1       -3.34825      0.0625000
       2        1.05885      0.0625000
       3        2.52698      0.0625000
       4        5.11615      0.0625000
       5        9.27794        0.00000
       6        11.6840        0.00000
       7        12.0993        0.00000
       8        13.4996        0.00000

 8/36 kpoint (Cartesian) = 0.500000 -0.500000 0.500000 (184 pws)
       1       -3.01547      0.0312500
       2      -0.627449      0.0312500
       3        5.24336      0.0312500
       4        5.24336      0.0312500
       5        8.25279        0.00000
       6        10.3493        0.00000
       7        10.3493        0.00000
       8        17.0430        0.00000

 9/36 kpoint (Cartesian) = 1.25000 0.250000 -0.250000 (203 pws)
       1       -2.65582      0.0625000
       2       0.121686      0.0625000
       3        2.78846      0.0625000
       4        4.17361      0.0625000
       5        8.28496        0.00000
       6        11.6477        0.00000
       7        12.7239        0.00000
       8        13.1187        0.00000

 10/36 kpoint (Cartesian) = 1.00000 0.00000 0.00000 (199 pws)
       1       -1.25202      0.0312500
       2       -1.25202      0.0312500
       3        3.48170      0.0312500
       4        3.48170      0.0312500
       5        7.41106        0.00000
       6        7.41106        0.00000
       7        16.9786        0.00000
       8        16.9786        0.00000

 11/36 kpoint (Cartesian) = -0.750000 0.750000 0.750000 (196 pws)
       1       -4.60359      0.0625000
       2        2.52518      0.0625000
       3        5.73823      0.0625000
       4        5.73823      0.0625000
       5        8.74658        0.00000
       6        10.3609        0.00000
       7        10.3609        0.00000
       8        13.8368        0.00000

 12/36 kpoint (Cartesian) = 0.00000 1.50000 0.00000 (210 pws)
       1       -4.32308      0.0625000
       2        3.06875      0.0625000
       3        4.51800      0.0625000
       4        4.51800      0.0625000
       5        7.70984        0.00000
       6        10.5801        0.00000
       7        12.7164        0.00000
       8        12.7164        0.00000

 13/36 kpoint (Cartesian) = -0.250000 1.25000 0.250000 (206 pws)
       1       -2.65582      0.0625000
       2       0.121686      0.0625000
       3        2.78846      0.0625000
       4        4.17361      0.0625000
       5        8.28496        0.00000
       6        11.6477        0.00000
       7        12.7239        0.00000
       8        13.1187        0.00000

 14/36 kpoint (Cartesian) = -0.500000 1.00000 0.500000 (199 pws)
       1       -3.34825      0.0625000
       2        1.05885      0.0625000
       3        2.52698      0.0625000
       4        5.11615      0.0625000
       5        9.27794        0.00000
       6        11.6840        0.00000
       7        12.0993        0.00000
       8        13.4996        0.00000

 15/36 kpoint (Cartesian) = 0.00000 0.00000 1.50000 (191 pws)
       1       -4.32308      0.0625000
       2        3.06875      0.0625000
       3        4.51800      0.0625000
       4        4.51800      0.0625000
       5        7.70984        0.00000
       6        10.5801        0.00000
       7        12.7164        0.00000
       8        12.7164        0.00000

 16/36 kpoint (Cartesian) = 0.750000 0.750000 0.750000 (198 pws)
       1       -4.60359      0.0625000
       2        2.52518      0.0625000
       3        5.73823      0.0625000
       4        5.73823      0.0625000
       5        8.74658        0.00000
       6        10.3609        0.00000
       7        10.3609        0.00000
       8        13.8368        0.00000

 17/36 kpoint (Cartesian) = 0.500000 0.500000 1.00000 (188 pws)
       1       -3.34825      0.0625000
       2        1.05885      0.0625000
       3        2.52698      0.0625000
       4        5.11615      0.0625000
       5        9.27794        0.00000
       6        11.6840        0.00000
       7        12.0993        0.00000
       8        13.4996        0.00000

 18/36 kpoint (Cartesian) = 0.250000 0.250000 1.25000 (193 pws)
       1       -2.65582      0.0625000
       2       0.121686      0.0625000
       3        2.78846      0.0625000
       4        4.17361      0.0625000
       5        8.28496        0.00000
       6        11.6477        0.00000
       7        12.7239        0.00000
       8        13.1187        0.00000

 19/36 kpoint (Cartesian) = -0.250000 0.250000 1.25000 (191 pws)
       1       -2.65582      0.0625000
       2       0.121686      0.0625000
       3        2.78846      0.0625000
       4        4.17361      0.0625000
       5        8.28496        0.00000
       6        11.6477        0.00000
       7        12.7239        0.00000
       8        13.1187        0.00000

 20/36 kpoint (Cartesian) = 0.500000 1.00000 0.500000 (203 pws)
       1       -3.34825      0.0625000
       2        1.05885      0.0625000
       3        2.52698      0.0625000
       4        5.11615      0.0625000
       5        9.27794        0.00000
       6        11.6840        0.00000
       7        12.0993        0.00000
       8        13.4996        0.00000

 21/36 kpoint (Cartesian) = 0.250000 0.750000 0.750000 (199 pws)
       1       -2.65582      0.0625000
       2       0.121686      0.0625000
       3        2.78846      0.0625000
       4        4.17361      0.0625000
       5        8.28496        0.00000
       6        11.6477        0.00000
       7        12.7239        0.00000
       8        13.1187        0.00000

 22/36 kpoint (Cartesian) = 0.00000 0.500000 1.00000 (194 pws)
       1       -1.03980      0.0625000
       2       -1.03980      0.0625000
       3        2.39103      0.0625000
       4        2.39103      0.0625000
       5        11.3786        0.00000
       6        11.3786        0.00000
       7        11.9831        0.00000
       8        11.9831        0.00000

 23/36 kpoint (Cartesian) = -0.500000 0.500000 1.00000 (193 pws)
       1       -3.34825      0.0625000
       2        1.05885      0.0625000
       3        2.52698      0.0625000
       4        5.11615      0.0625000
       5        9.27794        0.00000
       6        11.6840        0.00000
       7        12.0993        0.00000
       8        13.4996        0.00000

 24/36 kpoint (Cartesian) = 0.250000 1.25000 0.250000 (208 pws)
       1       -2.65582      0.0625000
       2       0.121686      0.0625000
       3        2.78846      0.0625000
       4        4.17361      0.0625000
       5        8.28496        0.00000
       6        11.6477        0.00000
       7        12.7239        0.00000
       8        13.1187        0.00000

 25/36 kpoint (Cartesian) = 0.00000 1.00000 0.500000 (204 pws)
       1       -1.03980      0.0625000
       2       -1.03980      0.0625000
       3        2.39103      0.0625000
       4        2.39103      0.0625000
       5        11.3786        0.00000
       6        11.3786        0.00000
       7        11.9831        0.00000
       8        11.9831        0.00000

 26/36 kpoint (Cartesian) = -0.250000 0.750000 0.750000 (201 pws)
       1       -2.65582      0.0625000
       2       0.121686      0.0625000
       3        2.78846      0.0625000
       4        4.17361      0.0625000
       5        8.28496        0.00000
       6        11.6477        0.00000
       7        12.7239        0.00000
       8        13.1187        0.00000

 27/36 kpoint (Cartesian) = -0.500000 0.500000 0.500000 (193 pws)
       1       -3.01547      0.0312500
       2      -0.627449      0.0312500
       3        5.24336      0.0312500
       4        5.24336      0.0312500
       5        8.25279        0.00000
       6        10.3493        0.00000
       7        10.3493        0.00000
       8        17.0430        0.00000

 28/36 kpoint (Cartesian) = 0.250000 1.25000 -0.250000 (212 pws)
       1       -2.65582      0.0625000
       2       0.121686      0.0625000
       3        2.78846      0.0625000
       4        4.17361      0.0625000
       5        8.28496        0.00000
       6        11.6477        0.00000
       7        12.7239        0.00000
       8        13.1187        0.00000

 29/36 kpoint (Cartesian) = 0.00000 1.00000 0.00000 (202 pws)
       1       -1.25202      0.0312500
       2       -1.25202      0.0312500
       3        3.48170      0.0312500
       4        3.48170      0.0312500
       5        7.41106        0.00000
       6        7.41106        0.00000
       7        16.9786        0.00000
       8        16.9786        0.00000

 30/36 kpoint (Cartesian) = 0.250000 -0.250000 1.25000 (189 pws)
       1       -2.65582      0.0625000
       2       0.121686      0.0625000
       3        2.78846      0.0625000
       4        4.17361      0.0625000
       5        8.28496        0.00000
       6        11.6477        0.00000
       7        12.7239        0.00000
       8        13.1187        0.00000

 31/36 kpoint (Cartesian) = 1.00000 0.500000 0.500000 (197 pws)
       1       -3.34825      0.0625000
       2        1.05885      0.0625000
       3        2.52698      0.0625000
       4        5.11615      0.0625000
       5        9.27794        0.00000
       6        11.6840        0.00000
       7        12.0993        0.00000
       8        13.4996        0.00000

 32/36 kpoint (Cartesian) = 0.750000 0.250000 0.750000 (194 pws)
       1       -2.65582      0.0625000
       2       0.121686      0.0625000
       3        2.78846      0.0625000
       4        4.17361      0.0625000
       5        8.28496        0.00000
       6        11.6477        0.00000
       7        12.7239        0.00000
       8        13.1187        0.00000

 33/36 kpoint (Cartesian) = 0.500000 0.00000 1.00000 (191 pws)
       1       -1.03980      0.0625000
       2       -1.03980      0.0625000
       3        2.39103      0.0625000
       4        2.39103      0.0625000
       5        11.3786        0.00000
       6        11.3786        0.00000
       7        11.9831        0.00000
       8        11.9831        0.00000

 34/36 kpoint (Cartesian) = 0.00000 0.00000 1.00000 (190 pws)
       1       -1.25202      0.0312500
       2       -1.25202      0.0312500
       3        3.48170      0.0312500
       4        3.48170      0.0312500
       5        7.41106        0.00000
       6        7.41106        0.00000
       7        16.9786        0.00000
       8        16.9786        0.00000

 35/36 kpoint (Cartesian) = 0.750000 0.750000 0.250000 (206 pws)
       1       -2.65582      0.0625000
       2       0.121686      0.0625000
       3        2.78846      0.0625000
       4        4.17361      0.0625000
       5        8.28496        0.00000
       6        11.6477        0.00000
       7        12.7239        0.00000
       8        13.1187        0.00000

 36/36 kpoint (Cartesian) = 0.500000 0.500000 0.500000 (198 pws)
       1       -3.01547      0.0312500
       2      -0.627449      0.0312500
       3        5.24336      0.0312500
       4        5.24336      0.0312500
       5        8.25279        0.00000
       6        10.3493        0.00000
       7        10.3493        0.00000
       8        17.0430        0.00000

 EFERMI = 6.585653952007631 eV
 OUT.ABACUS/ final etot is -213.9161275582990 eV


 --------------------------------------------
 !FINAL_ETOT_IS -213.9161275582990 eV
 --------------------------------------------






  |CLASS_NAME---------|NAME---------------|TIME(Sec)-----|CALLS----|AVG------|PER%-------
                                      total         4.9095        11      0.45   1.0e+02%
               Run_lcao           lcao_line         4.8858         1       4.9    1.e+02%
            ORB_control      set_orb_tables        0.76192         1      0.76       16.%
         ORB_gen_tables          gen_tables        0.76192         1      0.76       16.%
          ORB_table_phi          init_Table        0.51942         1      0.52       11.%
          ORB_table_phi      cal_ST_Phi12_R        0.51420        70    0.0073       10.%
         ORB_table_beta     init_Table_Beta        0.10112         1      0.10       2.1%
         ORB_table_beta       VNL_PhiBeta_R        0.10031        13    0.0077       2.0%
              LOOP_ions            opt_ions         4.0250         1       4.0       82.%
        ESolver_KS_LCAO                 Run         4.0227         1       4.0       82.%
            HSolverLCAO               solve         3.9039         7      0.56       80.%
             HamiltLCAO              each_k         1.6796       252    0.0067       34.%
         Gint_interface            cal_gint         2.7069        14      0.19       55.%
             HamiltLCAO                 H_k        0.53541       126    0.0042       11.%
            LCAO_Hamilt        calculate_Hk        0.54382       252    0.0022       11.%
               LCAO_nnr      folding_fixedH        0.47654       252    0.0019       9.7%
             Efficience                 H_k        0.53699       126    0.0043       11.%
              DiagoElpa          elpa_solve        0.50957       252    0.0020       10.%
          ElecStateLCAO            psiToRho         1.1678         7      0.17       24.%
 ----------------------------------------------------------------------------------------

 CLASS_NAME---------|NAME---------------|MEMORY(MB)--------
                                         269.6
        ORB_table_phi               Jl(x)          97.80
        init_meshball        meshball_pos          1.337
        Grid_Meshcell        index2normal          1.253
        Grid_Meshcell         index2ucell          1.253
        ORB_table_phi         Table_SR&TR          1.225
 ----------------------------------------------------------

 Start  Time  : Tue Jul  5 15:20:21 2022
 Finish Time  : Tue Jul  5 15:20:26 2022
 Total  Time  : 0 h 0 mins 5 secs 
